   * xtb version 6.7.1 (edcfbbe) compiled by 'albert@albert-system' on 2024-07-22

   ID    Z sym.   atoms
    1    7 N      1
    2    1 H      2-4

          program call               : /home/adpal/xtb-dist/bin/xtb ./results/g_{1}_coordinatesxTB.xyz --ohess --uhf 1 --parallel 8
          :  Hamiltonian                  GFN2-xTB          :
 * total energy  :    -4.4262440 Eh     change        0.0000000E+00 Eh
   *** GEOMETRY OPTIMIZATION CONVERGED AFTER 1 ITERATIONS ***

 final structure:
================
4
 xtb: 6.7.1 (edcfbbe)
N            0.91338699550038       -0.04061982938618       -0.02078749749881
H            0.59154922562853        0.62582510397593       -0.71201452446694
H            0.59074104330097       -0.95753808024488       -0.30483636283318
H            1.92561273557012       -0.04866719434487       -0.05007161520107

          :  Hamiltonian                  GFN2-xTB          :
         :: gradient norm              0.000024798614 Eh/a0 ::
         :: HOMO-LUMO gap             12.232456275392 eV    ::
         :: SCC energy                -4.482383261468 Eh    ::
         :: -> dispersion             -0.000366933215 Eh    ::
         :: repulsion energy           0.056139225116 Eh    ::

    * Orbital Energies and Occupations

         #    Occupation            Energy/Eh            Energy/eV
      -------------------------------------------------------------
         1        2.0000           -0.5948274             -16.1861
         2        2.0000           -0.5010601             -13.6345
         3        2.0000           -0.5010601             -13.6345
         4        2.0000           -0.3859850             -10.5032 (HOMO)
         5                          0.0635494               1.7293 (LUMO)
         6                          0.2149275               5.8485
         7                          0.2149275               5.8485
      -------------------------------------------------------------
                  HL-Gap            0.4495345 Eh           12.2325 eV

     #   Z          covCN         q      C6AA      α(0)
     1   7 N        2.580    -0.428    31.189     8.294
     2   1 H        0.860     0.143     1.451     1.887
     3   1 H        0.860     0.143     1.451     1.887
     4   1 H        0.860     0.143     1.451     1.887

Wiberg/Mayer (AO) data.
largest (>0.10) Wiberg bond orders for each atom

     #   Z sym  total        # sym  WBO       # sym  WBO       # sym  WBO
 ---------------------------------------------------------------------------
     1   7 N    2.937 --     3 H    0.979     4 H    0.979     2 H    0.979
     2   1 H    0.980 --     1 N    0.979
     3   1 H    0.980 --     1 N    0.979
     4   1 H    0.980 --     1 N    0.979
 ---------------------------------------------------------------------------

molecular dipole:
                 x           y           z       tot (Debye)
 q only:        0.099      -0.070      -0.271
   full:        0.234      -0.165      -0.640       1.783

 projected vibrational frequencies (cm⁻¹)
eigval :       -0.00    -0.00    -0.00    -0.00     0.00     0.00
eigval :     1160.82  1593.07  1593.31  3424.76  3476.68  3476.80

   temp. (K)  partition function   enthalpy   heat capacity  entropy
                                   cal/mol     cal/K/mol   cal/K/mol   J/K/mol
 298.15  VIB   1.00                   16.475      0.340      0.064
         ROT   70.3                  888.752      2.981     11.432
         INT   70.6                  905.228      3.321     11.496
         TR   0.680E+26             1481.254      4.968     34.426
         TOT                        2386.4814     8.2888    45.9222   192.1386

       T/K    H(0)-H(T)+PV         H(T)/Eh          T*S/Eh         G(T)/Eh
   ------------------------------------------------------------------------
    298.15    0.380310E-02    0.373501E-01    0.218191E-01    0.155310E-01
   ------------------------------------------------------------------------

         :::::::::::::::::::::::::::::::::::::::::::::::::::::
         ::                  THERMODYNAMIC                  ::
         :::::::::::::::::::::::::::::::::::::::::::::::::::::
         :: total free energy          -4.410713085669 Eh   ::
         ::.................................................::
         :: total energy               -4.426244036352 Eh   ::
         :: zero point energy           0.033546981565 Eh   ::
         :: G(RRHO) w/o ZPVE           -0.018016030882 Eh   ::
         :: G(RRHO) contrib.            0.015530950683 Eh   ::
         :::::::::::::::::::::::::::::::::::::::::::::::::::::

           -------------------------------------------------
          | TOTAL ENERGY               -4.426244036352 Eh   |
          | TOTAL ENTHALPY             -4.388893954521 Eh   |
          | TOTAL FREE ENERGY          -4.410713085669 Eh   |
          | GRADIENT NORM               0.000024798615 Eh/α |
          | HOMO-LUMO GAP              12.232456275393 eV   |
           -------------------------------------------------

 * finished run on 2025/01/10 at 14:23:59.439
normal termination of xtb
