   * xtb version 6.7.1 (edcfbbe) compiled by 'albert@albert-system' on 2024-07-22

   ID    Z sym.   atoms
    1    8 O      1
    2    1 H      2, 3

          program call               : /home/adpal/xtb-dist/bin/xtb ./results/g_{2}_coordinatesxTB.xyz --ohess --uhf 1 --parallel 8
          :  Hamiltonian                  GFN2-xTB          :
 * total energy  :    -5.0705444 Eh     change       -0.1776357E-14 Eh
   *** GEOMETRY OPTIMIZATION CONVERGED AFTER 1 ITERATIONS ***

 final structure:
================
3
 xtb: 6.7.1 (edcfbbe)
O            1.06392762369523       -0.05060726182210       -0.05867025336956
H            0.76197454871325        0.82481578344583       -0.30877185625975
H            2.02295782759152       -0.03253852162372       -0.06382789037068

          :  Hamiltonian                  GFN2-xTB          :
         :: gradient norm              0.000003564303 Eh/a0 ::
         :: HOMO-LUMO gap             14.389647562484 eV    ::
         :: SCC energy                -5.104912193073 Eh    ::
         :: -> dispersion             -0.000141084469 Eh    ::
         :: repulsion energy           0.034367745248 Eh    ::

    * Orbital Energies and Occupations

         #    Occupation            Energy/Eh            Energy/eV
      -------------------------------------------------------------
         1        2.0000           -0.6800828             -18.5060
         2        2.0000           -0.5683063             -15.4644
         3        2.0000           -0.5108693             -13.9015
         4        2.0000           -0.4463856             -12.1468 (HOMO)
         5                          0.0824242               2.2429 (LUMO)
         6                          0.2514886               6.8434
      -------------------------------------------------------------
                  HL-Gap            0.5288098 Eh           14.3896 eV

     #   Z          covCN         q      C6AA      α(0)
     1   8 O        1.611    -0.565    24.358     6.661
     2   1 H        0.805     0.282     0.776     1.384
     3   1 H        0.805     0.282     0.776     1.384

Wiberg/Mayer (AO) data.
largest (>0.10) Wiberg bond orders for each atom

     #   Z sym  total        # sym  WBO       # sym  WBO       # sym  WBO
 ---------------------------------------------------------------------------
     1   8 O    1.840 --     3 H    0.920     2 H    0.920
     2   1 H    0.920 --     1 O    0.920
     3   1 H    0.920 --     1 O    0.920
 ---------------------------------------------------------------------------

molecular dipole:
                 x           y           z       tot (Debye)
 q only:        0.351       0.477      -0.136
   full:        0.504       0.685      -0.196       2.217

 projected vibrational frequencies (cm⁻¹)
eigval :       -0.00    -0.00     0.00     0.00     0.00     0.00
eigval :     1539.57  3642.97  3651.19

   temp. (K)  partition function   enthalpy   heat capacity  entropy
                                   cal/mol     cal/K/mol   cal/K/mol   J/K/mol
 298.15  VIB   1.00                    2.615      0.065      0.010
         ROT   42.6                  888.752      2.981     10.435
         INT   42.6                  891.367      3.046     10.445
         TR   0.740E+26             1481.254      4.968     34.593
         TOT                        2372.6208     8.0142    45.0383   188.4401

       T/K    H(0)-H(T)+PV         H(T)/Eh          T*S/Eh         G(T)/Eh
   ------------------------------------------------------------------------
    298.15    0.378101E-02    0.239057E-01    0.213991E-01    0.250661E-02
   ------------------------------------------------------------------------

         :::::::::::::::::::::::::::::::::::::::::::::::::::::
         ::                  THERMODYNAMIC                  ::
         :::::::::::::::::::::::::::::::::::::::::::::::::::::
         :: total free energy          -5.068037838964 Eh   ::
         ::.................................................::
         :: total energy               -5.070544447824 Eh   ::
         :: zero point energy           0.020124732565 Eh   ::
         :: G(RRHO) w/o ZPVE           -0.017618123704 Eh   ::
         :: G(RRHO) contrib.            0.002506608860 Eh   ::
         :::::::::::::::::::::::::::::::::::::::::::::::::::::

           -------------------------------------------------
          | TOTAL ENERGY               -5.070544447824 Eh   |
          | TOTAL ENTHALPY             -5.046638703314 Eh   |
          | TOTAL FREE ENERGY          -5.068037838964 Eh   |
          | GRADIENT NORM               0.000003564275 Eh/α |
          | HOMO-LUMO GAP              14.389647562485 eV   |
           -------------------------------------------------

 * finished run on 2025/01/10 at 14:23:59.521
normal termination of xtb
