   * xtb version 6.7.1 (edcfbbe) compiled by 'albert@albert-system' on 2024-07-22

   ID    Z sym.   atoms
    1    8 O      1, 3, 4
    2    6 C      2

          program call               : /home/adpal/xtb-dist/bin/xtb ./results/g_{3}_coordinatesxTB.xyz --ohess --uhf 1 --parallel 8
          :  Hamiltonian                  GFN2-xTB          :
 * total energy  :   -14.1419353 Eh     change        0.7105427E-14 Eh
   *** GEOMETRY OPTIMIZATION CONVERGED AFTER 1 ITERATIONS ***

 final structure:
================
4
 xtb: 6.7.1 (edcfbbe)
O            1.14627993386482        0.01006809470808       -0.01483130544305
C            2.32855972042681        0.39534148903961       -0.16931194161301
O            2.92110625522352        0.18041810893393       -1.25226491464583
O            2.91832409048485        0.99544230731837        0.75920816170189

          :  Hamiltonian                  GFN2-xTB          :
         :: gradient norm              0.000014491061 Eh/a0 ::
         :: HOMO-LUMO gap              0.379655381324 eV    ::
         :: SCC energy               -14.219608979828 Eh    ::
         :: -> dispersion             -0.001285112848 Eh    ::
         :: repulsion energy           0.077673713107 Eh    ::

    * Orbital Energies and Occupations

         #    Occupation            Energy/Eh            Energy/eV
      -------------------------------------------------------------
         1        2.0000           -0.8468857             -23.0449
         2        2.0000           -0.8124992             -22.1092
         3        2.0000           -0.8124990             -22.1092
         4        2.0000           -0.7031888             -19.1347
         5        2.0000           -0.7013070             -19.0835
         6        2.0000           -0.6668681             -18.1464
         7        2.0000           -0.6668677             -18.1464
         8        2.0000           -0.5667089             -15.4209
         9        2.0000           -0.5667083             -15.4209
        10        1.9991           -0.5504798             -14.9793
        11        1.9991           -0.5504783             -14.9793 (HOMO)
        12        0.0018           -0.5365262             -14.5996 (LUMO)
        13                         -0.2788750              -7.5886
        14                          0.2246213               6.1123
        15                          0.4328974              11.7797
        16                          0.4329062              11.7800
      -------------------------------------------------------------
                  HL-Gap            0.0139521 Eh            0.3797 eV

     #   Z          covCN         q      C6AA      α(0)
     1   8 O        0.857    -0.179    17.730     5.645
     2   6 C        2.566     0.537    18.252     6.984
     3   8 O        0.857    -0.179    17.730     5.645
     4   8 O        0.857    -0.179    17.730     5.645

Wiberg/Mayer (AO) data.
largest (>0.10) Wiberg bond orders for each atom

     #   Z sym  total        # sym  WBO       # sym  WBO       # sym  WBO
 ---------------------------------------------------------------------------
     1   8 O    2.379 --     2 C    1.308     4 O    0.536     3 O    0.536
     2   6 C    3.923 --     3 O    1.308     1 O    1.308     4 O    1.308
     3   8 O    2.379 --     2 C    1.308     4 O    0.536     1 O    0.536
     4   8 O    2.379 --     2 C    1.308     1 O    0.536     3 O    0.536
 ---------------------------------------------------------------------------

molecular dipole:
                 x           y           z       tot (Debye)
 q only:       -0.000       0.000      -0.000
   full:       -0.000       0.000      -0.000       0.000

 projected vibrational frequencies (cm⁻¹)
eigval :       -0.00    -0.00    -0.00     0.00     0.00     0.00
eigval :     -194.74  -194.35   690.66  1125.85  1345.60  1345.71

   temp. (K)  partition function   enthalpy   heat capacity  entropy
                                   cal/mol     cal/K/mol   cal/K/mol   J/K/mol
 298.15  VIB   1.04                   98.875      1.360      0.419
         ROT  0.416E+04              888.752      2.981     19.544
         INT  0.435E+04              987.627      4.341     19.962
         TR   0.450E+27             1481.254      4.968     38.178
         TOT                        2468.8808     9.3092    58.1406   243.2601

       T/K    H(0)-H(T)+PV         H(T)/Eh          T*S/Eh         G(T)/Eh
   ------------------------------------------------------------------------
    298.15    0.393441E-02    0.142040E-01    0.276245E-01   -0.134205E-01
   ------------------------------------------------------------------------

         :::::::::::::::::::::::::::::::::::::::::::::::::::::
         ::                  THERMODYNAMIC                  ::
         :::::::::::::::::::::::::::::::::::::::::::::::::::::
         :: total free energy         -14.155355742609 Eh   ::
         ::.................................................::
         :: total energy              -14.141935266721 Eh   ::
         :: zero point energy           0.010269567347 Eh   ::
         :: G(RRHO) w/o ZPVE           -0.023690043234 Eh   ::
         :: G(RRHO) contrib.           -0.013420475887 Eh   ::
         :::::::::::::::::::::::::::::::::::::::::::::::::::::

           -------------------------------------------------
          | TOTAL ENERGY              -14.141935266721 Eh   |
          | TOTAL ENTHALPY            -14.127731287410 Eh   |
          | TOTAL FREE ENERGY         -14.155355742609 Eh   |
          | GRADIENT NORM               0.000014490922 Eh/α |
          | HOMO-LUMO GAP               0.379655379228 eV   |
           -------------------------------------------------

 * finished run on 2025/01/09 at 21:32:01.435
normal termination of xtb
