   * xtb version 6.7.1 (edcfbbe) compiled by 'albert@albert-system' on 2024-07-22

   ID    Z sym.   atoms
    1    8 O      1, 3, 4
    2    6 C      2

          program call               : /home/adpal/xtb-dist/bin/xtb ./results/g_{5}_coordinatesxTB.xyz --ohess --uhf 1 --parallel 8
          :  Hamiltonian                  GFN2-xTB          :
 * total energy  :   -14.1419353 Eh     change        0.5329071E-14 Eh
   *** GEOMETRY OPTIMIZATION CONVERGED AFTER 1 ITERATIONS ***

 final structure:
================
4
 xtb: 6.7.1 (edcfbbe)
O            1.05484687637257        0.02861439784934       -0.01560872606658
C            2.23714150669505        0.08047983860998        0.39619075701620
O            2.82967815741440        1.18256368142122        0.46254562419458
O            2.82689345951799       -0.96973791788054        0.74162234485580

          :  Hamiltonian                  GFN2-xTB          :
         :: gradient norm              0.000002247173 Eh/a0 ::
         :: HOMO-LUMO gap              0.379658408838 eV    ::
         :: SCC energy               -14.219608977808 Eh    ::
         :: -> dispersion             -0.001285112847 Eh    ::
         :: repulsion energy           0.077673710658 Eh    ::

    * Orbital Energies and Occupations

         #    Occupation            Energy/Eh            Energy/eV
      -------------------------------------------------------------
         1        2.0000           -0.8468857             -23.0449
         2        2.0000           -0.8124991             -22.1092
         3        2.0000           -0.8124990             -22.1092
         4        2.0000           -0.7031888             -19.1347
         5        2.0000           -0.7013070             -19.0835
         6        2.0000           -0.6668681             -18.1464
         7        2.0000           -0.6668677             -18.1464
         8        2.0000           -0.5667089             -15.4209
         9        2.0000           -0.5667084             -15.4209
        10        1.9991           -0.5504797             -14.9793
        11        1.9991           -0.5504784             -14.9793 (HOMO)
        12        0.0018           -0.5365262             -14.5996 (LUMO)
        13                         -0.2788750              -7.5886
        14                          0.2246213               6.1123
        15                          0.4328971              11.7797
        16                          0.4329065              11.7800
      -------------------------------------------------------------
                  HL-Gap            0.0139522 Eh            0.3797 eV

     #   Z          covCN         q      C6AA      α(0)
     1   8 O        0.857    -0.179    17.730     5.645
     2   6 C        2.566     0.537    18.252     6.984
     3   8 O        0.857    -0.179    17.730     5.645
     4   8 O        0.857    -0.179    17.730     5.645

Wiberg/Mayer (AO) data.
largest (>0.10) Wiberg bond orders for each atom

     #   Z sym  total        # sym  WBO       # sym  WBO       # sym  WBO
 ---------------------------------------------------------------------------
     1   8 O    2.379 --     2 C    1.308     3 O    0.536     4 O    0.536
     2   6 C    3.923 --     4 O    1.308     3 O    1.308     1 O    1.308
     3   8 O    2.379 --     2 C    1.308     1 O    0.536     4 O    0.536
     4   8 O    2.379 --     2 C    1.308     1 O    0.536     3 O    0.536
 ---------------------------------------------------------------------------

molecular dipole:
                 x           y           z       tot (Debye)
 q only:       -0.000      -0.000       0.000
   full:       -0.000      -0.000       0.000       0.000

 projected vibrational frequencies (cm⁻¹)
eigval :       -0.00     0.00     0.00     0.00     0.00     0.00
eigval :     -194.75  -194.36   690.66  1125.85  1345.60  1345.68

   temp. (K)  partition function   enthalpy   heat capacity  entropy
                                   cal/mol     cal/K/mol   cal/K/mol   J/K/mol
 298.15  VIB   1.04                   98.874      1.360      0.419
         ROT  0.416E+04              888.752      2.981     19.544
         INT  0.435E+04              987.626      4.341     19.962
         TR   0.450E+27             1481.254      4.968     38.178
         TOT                        2468.8801     9.3092    58.1406   243.2601

       T/K    H(0)-H(T)+PV         H(T)/Eh          T*S/Eh         G(T)/Eh
   ------------------------------------------------------------------------
    298.15    0.393441E-02    0.142039E-01    0.276245E-01   -0.134205E-01
   ------------------------------------------------------------------------

         :::::::::::::::::::::::::::::::::::::::::::::::::::::
         ::                  THERMODYNAMIC                  ::
         :::::::::::::::::::::::::::::::::::::::::::::::::::::
         :: total free energy         -14.155355795738 Eh   ::
         ::.................................................::
         :: total energy              -14.141935267149 Eh   ::
         :: zero point energy           0.010269513960 Eh   ::
         :: G(RRHO) w/o ZPVE           -0.023690042549 Eh   ::
         :: G(RRHO) contrib.           -0.013420528589 Eh   ::
         :::::::::::::::::::::::::::::::::::::::::::::::::::::

           -------------------------------------------------
          | TOTAL ENERGY              -14.141935267149 Eh   |
          | TOTAL ENTHALPY            -14.127731342368 Eh   |
          | TOTAL FREE ENERGY         -14.155355795738 Eh   |
          | GRADIENT NORM               0.000002246144 Eh/α |
          | HOMO-LUMO GAP               0.379658406173 eV   |
           -------------------------------------------------

 * finished run on 2025/01/10 at 14:23:59.270
normal termination of xtb
