   * xtb version 6.7.1 (edcfbbe) compiled by 'albert@albert-system' on 2024-07-22

   ID    Z sym.   atoms
    1    8 O      1, 3
    2    6 C      2

          program call               : /home/adpal/xtb-dist/bin/xtb ./results/g_{6}_coordinatesxTB.xyz --ohess --uhf 1 --parallel 8
          :  Hamiltonian                  GFN2-xTB          :
 * total energy  :   -10.3084523 Eh     change        0.0000000E+00 Eh
   *** GEOMETRY OPTIMIZATION CONVERGED AFTER 1 ITERATIONS ***

 final structure:
================
3
 xtb: 6.7.1 (edcfbbe)
O            1.25934373888822        0.13084806813883       -0.19434445910217
C            2.19312945020018       -0.13043984615737        0.41204758097681
O            3.12691681091160       -0.39172822198146        1.01843687812537

          :  Hamiltonian                  GFN2-xTB          :
         :: gradient norm              0.000000463515 Eh/a0 ::
         :: HOMO-LUMO gap              8.448656944022 eV    ::
         :: SCC energy               -10.430605159851 Eh    ::
         :: -> dispersion             -0.000687152302 Eh    ::
         :: repulsion energy           0.122152870650 Eh    ::

    * Orbital Energies and Occupations

         #    Occupation            Energy/Eh            Energy/eV
      -------------------------------------------------------------
         1        2.0000           -0.8108159             -22.0634
         2        2.0000           -0.7966848             -21.6789
         3        2.0000           -0.6648060             -18.0903
         4        2.0000           -0.6634711             -18.0540
         5        2.0000           -0.6634711             -18.0540
         6        2.0000           -0.5998338             -16.3223
         7        2.0000           -0.5344396             -14.5428
         8        2.0000           -0.5344396             -14.5428 (HOMO)
         9                         -0.2239572              -6.0942 (LUMO)
        10                         -0.2239572              -6.0942
        11                          0.3098933               8.4326
        12                          1.3642455              37.1230
      -------------------------------------------------------------
                  HL-Gap            0.3104824 Eh            8.4487 eV

     #   Z          covCN         q      C6AA      α(0)
     1   8 O        0.856    -0.232    18.599     5.782
     2   6 C        1.711     0.464    21.600     7.524
     3   8 O        0.856    -0.232    18.599     5.782

Wiberg/Mayer (AO) data.
largest (>0.10) Wiberg bond orders for each atom

     #   Z sym  total        # sym  WBO       # sym  WBO       # sym  WBO
 ---------------------------------------------------------------------------
     1   8 O    2.370 --     2 C    1.968     3 O    0.402
     2   6 C    3.936 --     3 O    1.968     1 O    1.968
     3   8 O    2.370 --     2 C    1.968     1 O    0.402
 ---------------------------------------------------------------------------

molecular dipole:
                 x           y           z       tot (Debye)
 q only:       -0.000       0.000       0.000
   full:       -0.000       0.000       0.000       0.000

   temp. (K)  partition function   enthalpy   heat capacity  entropy
                                   cal/mol     cal/K/mol   cal/K/mol   J/K/mol
 298.15  VIB   1.12                  204.770      2.161      0.915
         ROT   257.                  592.502      1.987     13.017
         INT   288.                  797.271      4.148     13.931
         TR   0.282E+27             1481.254      4.968     37.255
         TOT                        2278.5253     9.1161    51.1857   214.1609

       T/K    H(0)-H(T)+PV         H(T)/Eh          T*S/Eh         G(T)/Eh
   ------------------------------------------------------------------------
    298.15    0.363106E-02    0.155194E-01    0.243200E-01   -0.880055E-02
   ------------------------------------------------------------------------

         :::::::::::::::::::::::::::::::::::::::::::::::::::::
         ::                  THERMODYNAMIC                  ::
         :::::::::::::::::::::::::::::::::::::::::::::::::::::
         :: total free energy         -10.317252841931 Eh   ::
         ::.................................................::
         :: total energy              -10.308452289201 Eh   ::
         :: zero point energy           0.011888361547 Eh   ::
         :: G(RRHO) w/o ZPVE           -0.020688914276 Eh   ::
         :: G(RRHO) contrib.           -0.008800552729 Eh   ::
         :::::::::::::::::::::::::::::::::::::::::::::::::::::

           -------------------------------------------------
          | TOTAL ENERGY              -10.308452289201 Eh   |
          | TOTAL ENTHALPY            -10.292932866541 Eh   |
          | TOTAL FREE ENERGY         -10.317252841931 Eh   |
          | GRADIENT NORM               0.000000463523 Eh/α |
          | HOMO-LUMO GAP               8.448656944024 eV   |
           -------------------------------------------------

 * finished run on 2025/01/09 at 20:28:14.798
normal termination of xtb
