   * xtb version 6.7.1 (edcfbbe) compiled by 'albert@albert-system' on 2024-07-22

   ID    Z sym.   atoms
    1    8 O      1, 7, 10
    2    1 H      2, 3, 6, 9, 11, 14
    3    6 C      4, 8, 12
    4    7 N      5, 13

          program call               : /home/adpal/xtb-dist/bin/xtb ./results/p_{0,70}_coordinatesxTB.xyz --ohess --uhf 1 --parallel 8
          :  Hamiltonian                  GFN2-xTB          :
 * total energy  :   -27.4957151 Eh     change       -0.1421085E-13 Eh
   *** GEOMETRY OPTIMIZATION CONVERGED AFTER 1 ITERATIONS ***

 final structure:
================
14
 xtb: 6.7.1 (edcfbbe)
O            6.28542311657032       -1.59476037456570       -1.05397904679999
H            3.91816544698622       -1.55725281393433        0.24686442096137
H            7.32787087886531        0.94893111898463       -2.54046469545340
C            6.31373173445395       -0.52608506628137       -1.86203388936600
N            7.36498501221668        0.15146935363032       -1.91685156363283
H            5.37206936082046       -0.35191174734321       -2.40475867728564
O            3.99120001383258       -1.61596675958471       -0.71469293513327
C            5.07625215666173       -2.39158034602240       -1.04498480193795
H            4.89594674073861       -2.75246348335784       -2.07232412098530
O            7.50074386206614       -3.54189547241983        0.25262717368400
H            7.57387380731586       -2.72523977433941       -0.27916619797961
C            6.24919774279942       -3.94797737319833        0.33738810460176
N            5.19189961445482       -3.50013995915846       -0.17856441930935
H            6.14342051221763       -4.82587730240931        0.96733064863610

          :  Hamiltonian                  GFN2-xTB          :
         :: gradient norm              0.000044707432 Eh/a0 ::
         :: HOMO-LUMO gap              4.208565971823 eV    ::
         :: SCC energy               -27.743792728004 Eh    ::
         :: -> dispersion             -0.008657376907 Eh    ::
         :: repulsion energy           0.248077625190 Eh    ::

    * Orbital Energies and Occupations

         #    Occupation            Energy/Eh            Energy/eV
      -------------------------------------------------------------
         1        2.0000           -0.7545379             -20.5320
       ...           ...                  ...                  ...
        11        2.0000           -0.6016560             -16.3719
        12        2.0000           -0.5747728             -15.6404
        13        2.0000           -0.5606408             -15.2558
        14        2.0000           -0.5426168             -14.7654
        15        2.0000           -0.5308426             -14.4450
        16        2.0000           -0.5236361             -14.2489
        17        2.0000           -0.5226725             -14.2226
        18        2.0000           -0.4778620             -13.0033
        19        2.0000           -0.4747434             -12.9184
        20        2.0000           -0.4488706             -12.2144
        21        2.0000           -0.4380313             -11.9194
        22        2.0000           -0.4165465             -11.3348
        23        2.0000           -0.3976772             -10.8213 (HOMO)
        24                         -0.2430153              -6.6128 (LUMO)
        25                         -0.2363978              -6.4327
        26                         -0.0257931              -0.7019
        27                          0.0562187               1.5298
        28                          0.0722039               1.9648
        29                          0.0920728               2.5054
        30                          0.1138157               3.0971
        31                          0.1347894               3.6678
        32                          0.1433135               3.8998
        33                          0.1992731               5.4225
        34                          0.2380078               6.4765
       ...                                ...                  ...
        38                          0.6112899              16.6340
      -------------------------------------------------------------
                  HL-Gap            0.1546619 Eh            4.2086 eV

     #   Z          covCN         q      C6AA      α(0)
     1   8 O        1.704    -0.307    19.119     5.903
     2   1 H        0.805     0.321     0.661     1.277
     3   1 H        0.860     0.161     1.329     1.806
     4   6 C        2.708     0.232    23.134     7.873
     5   7 N        1.775    -0.334    29.475     8.040
     6   1 H        0.923     0.005     2.971     2.695
     7   8 O        1.658    -0.424    21.313     6.232
     8   6 C        3.569     0.326    16.400     5.893
     9   1 H        0.923     0.045     2.390     2.418
    10   8 O        1.658    -0.350    19.905     6.023
    11   1 H        0.803     0.346     0.599     1.215
    12   6 C        2.709     0.222    23.314     7.903
    13   7 N        1.821    -0.319    29.111     7.995
    14   1 H        0.925     0.076     2.022     2.224

Wiberg/Mayer (AO) data.
largest (>0.10) Wiberg bond orders for each atom

     #   Z sym  total        # sym  WBO       # sym  WBO       # sym  WBO
 ---------------------------------------------------------------------------
     1   8 O    2.266 --     4 C    1.097     8 C    0.875     5 N    0.132
     2   1 H    0.897 --     7 O    0.877
     3   1 H    0.973 --     5 N    0.947
     4   6 C    3.930 --     5 N    1.872     1 O    1.097     6 H    0.932
     5   7 N    3.017 --     4 C    1.872     3 H    0.947     1 O    0.132
     6   1 H    1.000 --     4 C    0.932
     7   8 O    2.012 --     8 C    1.025     2 H    0.877
     8   6 C    3.926 --    13 N    1.039     7 O    1.025     9 H    0.935
                             1 O    0.875
     9   1 H    0.998 --     8 C    0.935
    10   8 O    2.243 --    12 C    1.190    11 H    0.829    13 N    0.188
    11   1 H    0.881 --    10 O    0.829
    12   6 C    3.939 --    13 N    1.756    10 O    1.190    14 H    0.940
    13   7 N    3.070 --    12 C    1.756     8 C    1.039    10 O    0.188
    14   1 H    0.994 --    12 C    0.940
 ---------------------------------------------------------------------------

molecular dipole:
                 x           y           z       tot (Debye)
 q only:       -0.161      -0.150       0.151
   full:       -0.319       0.137      -0.136       0.947

 projected vibrational frequencies (cm⁻¹)
eigval :       -0.00    -0.00    -0.00    -0.00     0.00     0.00
eigval :       53.87    80.79   114.63   141.48   270.90   297.91
eigval :      356.52   369.61   459.55   553.66   648.62   711.24
eigval :      745.01   779.10   895.27   926.13   968.91   973.08
eigval :     1057.71  1102.70  1166.62  1200.60  1223.92  1256.10
eigval :     1276.72  1325.06  1343.79  1359.41  1731.50  1759.03
eigval :     2824.65  2859.94  3028.92  3309.15  3406.28  3510.89

   temp. (K)  partition function   enthalpy   heat capacity  entropy
                                   cal/mol     cal/K/mol   cal/K/mol   J/K/mol
 298.15  VIB   250.                 3611.288     23.128     22.451
         ROT  0.379E+06              888.752      2.981     28.508
         INT  0.948E+08             4500.040     26.109     50.959
         TR   0.124E+28             1481.254      4.968     40.195
         TOT                        5981.2940    31.0775    91.1544   381.3902

       T/K    H(0)-H(T)+PV         H(T)/Eh          T*S/Eh         G(T)/Eh
   ------------------------------------------------------------------------
    298.15    0.953180E-02    0.109975E+00    0.433104E-01    0.666642E-01
   ------------------------------------------------------------------------

         :::::::::::::::::::::::::::::::::::::::::::::::::::::
         ::                  THERMODYNAMIC                  ::
         :::::::::::::::::::::::::::::::::::::::::::::::::::::
         :: total free energy         -27.429050918106 Eh   ::
         ::.................................................::
         :: total energy              -27.495715102815 Eh   ::
         :: zero point energy           0.100442806245 Eh   ::
         :: G(RRHO) w/o ZPVE           -0.033778621537 Eh   ::
         :: G(RRHO) contrib.            0.066664184708 Eh   ::
         :::::::::::::::::::::::::::::::::::::::::::::::::::::

           -------------------------------------------------
          | TOTAL ENERGY              -27.495715102815 Eh   |
          | TOTAL ENTHALPY            -27.385740497806 Eh   |
          | TOTAL FREE ENERGY         -27.429050918106 Eh   |
          | GRADIENT NORM               0.000044697732 Eh/α |
          | HOMO-LUMO GAP               4.208565471800 eV   |
           -------------------------------------------------

 * finished run on 2025/01/10 at 14:27:11.757
normal termination of xtb
