   * xtb version 6.7.1 (edcfbbe) compiled by 'albert@albert-system' on 2024-07-22

   ID    Z sym.   atoms
    1    8 O      1
    2    1 H      2, 3, 6, 8-10, 13
    3    6 C      4, 11
    4    7 N      5, 7, 12

          program call               : /home/adpal/xtb-dist/bin/xtb ./results/p_{0,6}_coordinatesxTB.xyz --ohess --uhf 1 --parallel 8
          :  Hamiltonian                  GFN2-xTB          :
 * total energy  :   -20.6527676 Eh     change        0.0000000E+00 Eh
   *** GEOMETRY OPTIMIZATION CONVERGED AFTER 1 ITERATIONS ***

 final structure:
================
13
 xtb: 6.7.1 (edcfbbe)
O            1.47002110310411       -0.46655708438049       -0.43463531540489
H            2.53530522651456       -1.32208301262566        2.45859741928892
H            0.80257095344987       -1.16489502087883       -0.41782371614830
C            2.46146760586336       -0.78118126587968        0.49365556609516
N            1.84020817952756       -1.08271809163617        1.76273280126379
H            3.13023982330501        0.09974162027098        0.49569690704671
N            3.24293241049876       -1.92598145134672        0.12399163215547
H            5.49393306238740       -2.83075619228281       -1.90516387124455
H            1.30359712199925       -0.28857160479009        2.09129772729561
H            2.79601607808827       -2.82665546836287        0.22907402258948
C            4.26048893192732       -1.88980964886654       -0.77294872125809
N            4.69850980660759       -2.95539179501914       -1.28902301648882
H            4.64526969672681       -0.87353098420175       -0.93955143519059

          :  Hamiltonian                  GFN2-xTB          :
         :: gradient norm              0.000022555208 Eh/a0 ::
         :: HOMO-LUMO gap              4.544406858730 eV    ::
         :: SCC energy               -20.872511702511 Eh    ::
         :: -> dispersion             -0.006808852850 Eh    ::
         :: repulsion energy           0.219744061379 Eh    ::

    * Orbital Energies and Occupations

         #    Occupation            Energy/Eh            Energy/eV
      -------------------------------------------------------------
         1        2.0000           -0.7145139             -19.4429
       ...           ...                  ...                  ...
         6        2.0000           -0.5912530             -16.0888
         7        2.0000           -0.5805226             -15.7968
         8        2.0000           -0.5605134             -15.2523
         9        2.0000           -0.5498744             -14.9628
        10        2.0000           -0.5199867             -14.1496
        11        2.0000           -0.5105194             -13.8919
        12        2.0000           -0.4906006             -13.3499
        13        2.0000           -0.4865663             -13.2401
        14        2.0000           -0.4798032             -13.0561
        15        2.0000           -0.4511487             -12.2764
        16        2.0000           -0.4039932             -10.9932
        17        2.0000           -0.3887087             -10.5773
        18        2.0000           -0.3682801             -10.0214 (HOMO)
        19                         -0.2012762              -5.4770 (LUMO)
        20                          0.0088959               0.2421
        21                          0.0461518               1.2559
        22                          0.0713503               1.9415
        23                          0.0871268               2.3708
        24                          0.1182911               3.2189
        25                          0.1560793               4.2471
        26                          0.1703826               4.6363
        27                          0.1865205               5.0755
        28                          0.2329675               6.3394
        29                          0.2463284               6.7029
       ...                                ...                  ...
        31                          0.5908899              16.0789
      -------------------------------------------------------------
                  HL-Gap            0.1670039 Eh            4.5444 eV

     #   Z          covCN         q      C6AA      α(0)
     1   8 O        1.657    -0.445    21.736     6.294
     2   1 H        0.860     0.159     1.344     1.816
     3   1 H        0.805     0.310     0.691     1.306
     4   6 C        3.596     0.255    17.193     6.002
     5   7 N        2.637    -0.370    29.550     8.073
     6   1 H        0.922     0.026     2.638     2.540
     7   7 N        2.703    -0.207    25.491     7.499
     8   1 H        0.860     0.139     1.478     1.905
     9   1 H        0.860     0.164     1.310     1.793
    10   1 H        0.860     0.193     1.144     1.675
    11   6 C        2.751     0.150    24.724     8.142
    12   7 N        1.786    -0.371    30.507     8.181
    13   1 H        0.923    -0.003     3.118     2.761

Wiberg/Mayer (AO) data.
largest (>0.10) Wiberg bond orders for each atom

     #   Z sym  total        # sym  WBO       # sym  WBO       # sym  WBO
 ---------------------------------------------------------------------------
     1   8 O    1.987 --     4 C    0.994     3 H    0.884
     2   1 H    0.975 --     5 N    0.959
     3   1 H    0.904 --     1 O    0.884
     4   6 C    3.955 --     5 N    1.007     1 O    0.994     7 N    0.989
                             6 H    0.942
     5   7 N    3.009 --     4 C    1.007     2 H    0.959     9 H    0.957
     6   1 H    0.999 --     4 C    0.942
     7   7 N    3.381 --    11 C    1.207     4 C    0.989    10 H    0.928
                            12 N    0.164
     8   1 H    0.980 --    12 N    0.954
     9   1 H    0.973 --     5 N    0.957
    10   1 H    0.963 --     7 N    0.928
    11   6 C    3.966 --    12 N    1.800     7 N    1.207    13 H    0.934
    12   7 N    2.987 --    11 C    1.800     8 H    0.954     7 N    0.164
    13   1 H    1.000 --    11 C    0.934
 ---------------------------------------------------------------------------

molecular dipole:
                 x           y           z       tot (Debye)
 q only:       -0.467       0.130       0.760
   full:       -0.260       0.588       0.842       2.694

 projected vibrational frequencies (cm⁻¹)
eigval :       -0.00    -0.00    -0.00    -0.00     0.00     0.00
eigval :       62.71   128.05   219.02   240.40   349.83   415.23
eigval :      460.73   554.38   557.78   633.73   760.55   907.15
eigval :      967.24   979.05  1005.98  1096.48  1110.88  1187.05
eigval :     1211.69  1245.70  1289.43  1329.97  1346.74  1418.57
eigval :     1523.85  1723.69  2815.00  2829.06  3395.46  3417.08
eigval :     3431.77  3453.22  3515.42

   temp. (K)  partition function   enthalpy   heat capacity  entropy
                                   cal/mol     cal/K/mol   cal/K/mol   J/K/mol
 298.15  VIB   39.0                 2729.298     18.898     16.125
         ROT  0.159E+06              888.752      2.981     26.779
         INT  0.619E+07             3618.050     21.879     42.904
         TR   0.814E+27             1481.254      4.968     39.356
         TOT                        5099.3040    26.8471    82.2595   344.1739

       T/K    H(0)-H(T)+PV         H(T)/Eh          T*S/Eh         G(T)/Eh
   ------------------------------------------------------------------------
    298.15    0.812626E-02    0.111972E+00    0.390842E-01    0.728876E-01
   ------------------------------------------------------------------------

         :::::::::::::::::::::::::::::::::::::::::::::::::::::
         ::                  THERMODYNAMIC                  ::
         :::::::::::::::::::::::::::::::::::::::::::::::::::::
         :: total free energy         -20.579880077825 Eh   ::
         ::.................................................::
         :: total energy              -20.652767641133 Eh   ::
         :: zero point energy           0.103845459712 Eh   ::
         :: G(RRHO) w/o ZPVE           -0.030957896405 Eh   ::
         :: G(RRHO) contrib.            0.072887563307 Eh   ::
         :::::::::::::::::::::::::::::::::::::::::::::::::::::

           -------------------------------------------------
          | TOTAL ENERGY              -20.652767641133 Eh   |
          | TOTAL ENTHALPY            -20.540795923168 Eh   |
          | TOTAL FREE ENERGY         -20.579880077825 Eh   |
          | GRADIENT NORM               0.000022555893 Eh/α |
          | HOMO-LUMO GAP               4.544407083736 eV   |
           -------------------------------------------------

 * finished run on 2025/01/10 at 14:24:05.882
normal termination of xtb
