   * xtb version 6.7.1 (edcfbbe) compiled by 'albert@albert-system' on 2024-07-22

   ID    Z sym.   atoms
    1    8 O      1
    2    1 H      2, 3, 6, 8-10, 13
    3    6 C      4, 11
    4    7 N      5, 7, 12

          program call               : /home/adpal/xtb-dist/bin/xtb ./results/p_{0,7}_coordinatesxTB.xyz --ohess --uhf 1 --parallel 8
          :  Hamiltonian                  GFN2-xTB          :
 * total energy  :   -20.6601030 Eh     change        0.1065814E-13 Eh
   *** GEOMETRY OPTIMIZATION CONVERGED AFTER 1 ITERATIONS ***

 final structure:
================
13
 xtb: 6.7.1 (edcfbbe)
O            1.36528985926897       -0.14555257905890        0.65519816553957
H            2.00895537839839        0.68882886826535       -1.84307346936658
H            0.73979396258724        0.41319670714805        0.18072691982910
C            2.52544825248301       -0.25518539343665       -0.14138743830897
N            2.13712680495196       -0.27013484641968       -1.53089664961721
H            2.96748955892697       -1.23212253890985        0.11092136617961
N            3.32781008349682        0.71952098457120        2.43423768604943
H            2.87427985524543       -0.66971290914466       -2.09697779533147
H            3.52338677814398        1.21113260840416        3.28736234070854
H            2.52434696943947        0.11028722819324        2.40863158045427
C            3.79751558457295        1.17769391826728        1.25144671966064
N            3.49571599019996        0.78838425070876        0.08580806019288
H            4.55644092228506        1.95135370141212        1.32030251401060

          :  Hamiltonian                  GFN2-xTB          :
         :: gradient norm              0.000042284511 Eh/a0 ::
         :: HOMO-LUMO gap              4.560595665481 eV    ::
         :: SCC energy               -20.882338969504 Eh    ::
         :: -> dispersion             -0.007093267057 Eh    ::
         :: repulsion energy           0.222235963382 Eh    ::

    * Orbital Energies and Occupations

         #    Occupation            Energy/Eh            Energy/eV
      -------------------------------------------------------------
         1        2.0000           -0.6904370             -18.7877
       ...           ...                  ...                  ...
         6        2.0000           -0.5801155             -15.7857
         7        2.0000           -0.5581216             -15.1873
         8        2.0000           -0.5500673             -14.9681
         9        2.0000           -0.5447473             -14.8233
        10        2.0000           -0.5324130             -14.4877
        11        2.0000           -0.4925834             -13.4039
        12        2.0000           -0.4892180             -13.3123
        13        2.0000           -0.4772771             -12.9874
        14        2.0000           -0.4635306             -12.6133
        15        2.0000           -0.4315745             -11.7437
        16        2.0000           -0.3856031             -10.4928
        17        2.0000           -0.3803640             -10.3502
        18        2.0000           -0.3683347             -10.0229 (HOMO)
        19                         -0.2007358              -5.4623 (LUMO)
        20                          0.0304646               0.8290
        21                          0.0616090               1.6765
        22                          0.0803347               2.1860
        23                          0.0899671               2.4481
        24                          0.1347698               3.6673
        25                          0.1643779               4.4730
        26                          0.1916047               5.2138
        27                          0.2256129               6.1392
        28                          0.2588109               7.0426
        29                          0.2640514               7.1852
       ...                                ...                  ...
        31                          0.6021905              16.3864
      -------------------------------------------------------------
                  HL-Gap            0.1675988 Eh            4.5606 eV

     #   Z          covCN         q      C6AA      α(0)
     1   8 O        1.656    -0.466    22.168     6.356
     2   1 H        0.860     0.155     1.369     1.833
     3   1 H        0.805     0.302     0.716     1.329
     4   6 C        3.613     0.262    16.998     5.951
     5   7 N        2.633    -0.365    29.409     8.054
     6   1 H        0.923     0.021     2.715     2.577
     7   7 N        2.635    -0.263    26.817     7.691
     8   1 H        0.860     0.154     1.371     1.834
     9   1 H        0.861     0.168     1.286     1.777
    10   1 H        0.860     0.200     1.104     1.646
    11   6 C        2.770     0.145    24.821     8.159
    12   7 N        1.827    -0.350    29.937     8.108
    13   1 H        0.925     0.035     2.517     2.481

Wiberg/Mayer (AO) data.
largest (>0.10) Wiberg bond orders for each atom

     #   Z sym  total        # sym  WBO       # sym  WBO       # sym  WBO
 ---------------------------------------------------------------------------
     1   8 O    1.970 --     4 C    0.966     3 H    0.889
     2   1 H    0.976 --     5 N    0.958
     3   1 H    0.909 --     1 O    0.889
     4   6 C    3.953 --     5 N    1.016    12 N    0.992     1 O    0.966
                             6 H    0.947
     5   7 N    3.013 --     4 C    1.016     8 H    0.961     2 H    0.958
     6   1 H    1.000 --     4 C    0.947
     7   7 N    3.361 --    11 C    1.247     9 H    0.955    10 H    0.930
                            12 N    0.203
     8   1 H    0.976 --     5 N    0.961
     9   1 H    0.972 --     7 N    0.955
    10   1 H    0.960 --     7 N    0.930
    11   6 C    3.970 --    12 N    1.731     7 N    1.247    13 H    0.950
    12   7 N    3.026 --    11 C    1.731     4 C    0.992     7 N    0.203
    13   1 H    0.999 --    11 C    0.950
 ---------------------------------------------------------------------------

molecular dipole:
                 x           y           z       tot (Debye)
 q only:       -0.000       0.380       0.484
   full:        0.053       0.616       0.714       2.399

 projected vibrational frequencies (cm⁻¹)
eigval :       -0.00    -0.00    -0.00     0.00     0.00     0.00
eigval :       63.60   173.33   206.53   219.25   284.28   368.57
eigval :      384.02   455.75   551.50   612.10   691.05   886.71
eigval :      913.88   936.13  1034.06  1047.71  1097.12  1118.08
eigval :     1240.19  1250.73  1295.78  1324.01  1327.61  1461.35
eigval :     1562.97  1733.35  2864.82  3004.26  3382.01  3449.02
eigval :     3450.79  3532.60  3552.31

   temp. (K)  partition function   enthalpy   heat capacity  entropy
                                   cal/mol     cal/K/mol   cal/K/mol   J/K/mol
 298.15  VIB   44.0                 2920.174     19.912     17.030
         ROT  0.137E+06              888.752      2.981     26.484
         INT  0.603E+07             3808.927     22.893     43.513
         TR   0.814E+27             1481.254      4.968     39.356
         TOT                        5290.1807    27.8612    82.8693   346.7253

       T/K    H(0)-H(T)+PV         H(T)/Eh          T*S/Eh         G(T)/Eh
   ------------------------------------------------------------------------
    298.15    0.843044E-02    0.112031E+00    0.393739E-01    0.726573E-01
   ------------------------------------------------------------------------

         :::::::::::::::::::::::::::::::::::::::::::::::::::::
         ::                  THERMODYNAMIC                  ::
         :::::::::::::::::::::::::::::::::::::::::::::::::::::
         :: total free energy         -20.587445713010 Eh   ::
         ::.................................................::
         :: total energy              -20.660103006122 Eh   ::
         :: zero point energy           0.103600745504 Eh   ::
         :: G(RRHO) w/o ZPVE           -0.030943452392 Eh   ::
         :: G(RRHO) contrib.            0.072657293112 Eh   ::
         :::::::::::::::::::::::::::::::::::::::::::::::::::::

           -------------------------------------------------
          | TOTAL ENERGY              -20.660103006122 Eh   |
          | TOTAL ENTHALPY            -20.548071820998 Eh   |
          | TOTAL FREE ENERGY         -20.587445713010 Eh   |
          | GRADIENT NORM               0.000042274710 Eh/α |
          | HOMO-LUMO GAP               4.560596053055 eV   |
           -------------------------------------------------

 * finished run on 2025/01/10 at 14:24:06.639
normal termination of xtb
