   * xtb version 6.7.1 (edcfbbe) compiled by 'albert@albert-system' on 2024-07-22

   ID    Z sym.   atoms
    1    8 O      1, 4, 13
    2    1 H      2, 3, 5, 6, 9, 12, 14, 15, 18
    3    6 C      7, 10, 16
    4    7 N      8, 11, 17

          program call               : /home/adpal/xtb-dist/bin/xtb ./results/p_{0,31}_coordinatesxTB.xyz --ohess --uhf 1 --parallel 8
          :  Hamiltonian                  GFN2-xTB          :
 * total energy  :   -31.9408755 Eh     change        0.7105427E-14 Eh
   *** GEOMETRY OPTIMIZATION CONVERGED AFTER 1 ITERATIONS ***

 final structure:
================
18
 xtb: 6.7.1 (edcfbbe)
O            2.39291022541180        1.20769530549125       -1.91045390230836
H           -0.04866259270976        2.00711500423557       -1.51439712298008
H            3.53542479466626        1.69510537297301        0.10014408361788
O            1.19493172095475        1.93232507389741       -3.66941241270101
H           -0.75593453506804        0.77858530291281       -2.34541580941393
H            2.09901253205446        2.13446179127803       -3.93477475386912
C            1.22366116191688        0.96833796789352       -2.66742936316168
N            0.07051113434293        1.04897187575874       -1.82820653012049
H            1.27006375249286       -0.05092132146125       -3.09679339011236
C            2.69957585943594        0.21047804238515       -0.98522635584814
N            3.73616534082024        0.73533683217538       -0.14572959407067
H            1.77632803708138       -0.10516609024657       -0.46052743831533
O            3.13487742394460       -0.96946612632933       -1.61866305434328
H            5.51917011052963       -1.70910512249265       -3.51528135687017
H            3.84225830691157        0.17605673404001        0.69055135731037
C            4.26127683294725       -0.86896002117066       -2.34719206786235
N            4.65944188236951       -1.86165229340901       -2.99945560360904
H            4.73419801189771        0.12257167206861       -2.28903668534226

          :  Hamiltonian                  GFN2-xTB          :
         :: gradient norm              0.000017591890 Eh/a0 ::
         :: HOMO-LUMO gap              4.309579356316 eV    ::
         :: SCC energy               -32.211316225038 Eh    ::
         :: -> dispersion             -0.011805081377 Eh    ::
         :: repulsion energy           0.270440730306 Eh    ::

    * Orbital Energies and Occupations

         #    Occupation            Energy/Eh            Energy/eV
      -------------------------------------------------------------
         1        2.0000           -0.7462283             -20.3059
       ...           ...                  ...                  ...
        15        2.0000           -0.5415578             -14.7365
        16        2.0000           -0.5333991             -14.5145
        17        2.0000           -0.5268970             -14.3376
        18        2.0000           -0.5083088             -13.8318
        19        2.0000           -0.5061892             -13.7741
        20        2.0000           -0.5036292             -13.7044
        21        2.0000           -0.4869408             -13.2503
        22        2.0000           -0.4697430             -12.7824
        23        2.0000           -0.4380443             -11.9198
        24        2.0000           -0.4311028             -11.7309
        25        2.0000           -0.4152911             -11.3006
        26        2.0000           -0.4076401             -11.0925
        27        2.0000           -0.3812417             -10.3741 (HOMO)
        28                         -0.2228676              -6.0645 (LUMO)
        29                         -0.0087545              -0.2382
        30                          0.0152929               0.4161
        31                          0.0415190               1.1298
        32                          0.0463773               1.2620
        33                          0.0671258               1.8266
        34                          0.0949366               2.5834
        35                          0.1248997               3.3987
        36                          0.1344649               3.6590
        37                          0.1404690               3.8224
        38                          0.1457818               3.9669
       ...                                ...                  ...
        45                          0.5861234              15.9492
      -------------------------------------------------------------
                  HL-Gap            0.1583741 Eh            4.3096 eV

     #   Z          covCN         q      C6AA      α(0)
     1   8 O        1.704    -0.351    19.910     6.024
     2   1 H        0.860     0.176     1.239     1.744
     3   1 H        0.860     0.179     1.222     1.732
     4   8 O        1.657    -0.446    21.763     6.298
     5   1 H        0.860     0.175     1.243     1.747
     6   1 H        0.805     0.319     0.667     1.283
     7   6 C        3.558     0.327    16.466     5.920
     8   7 N        2.630    -0.366    29.457     8.061
     9   1 H        0.922     0.016     2.797     2.616
    10   6 C        3.595     0.322    16.299     5.845
    11   7 N        2.631    -0.356    29.186     8.023
    12   1 H        0.922     0.026     2.638     2.540
    13   8 O        1.708    -0.265    18.400     5.792
    14   1 H        0.860     0.158     1.345     1.817
    15   1 H        0.860     0.172     1.262     1.760
    16   6 C        2.724     0.231    23.154     7.877
    17   7 N        1.774    -0.329    29.340     8.021
    18   1 H        0.923     0.014     2.830     2.631

Wiberg/Mayer (AO) data.
largest (>0.10) Wiberg bond orders for each atom

     #   Z sym  total        # sym  WBO       # sym  WBO       # sym  WBO
 ---------------------------------------------------------------------------
     1   8 O    2.086 --    10 C    0.974     7 C    0.937
     2   1 H    0.969 --     8 N    0.952
     3   1 H    0.968 --    11 N    0.951
     4   8 O    1.973 --     7 C    0.991     6 H    0.877
     5   1 H    0.969 --     8 N    0.953
     6   1 H    0.898 --     4 O    0.877
     7   6 C    3.929 --     8 N    1.033     4 O    0.991     9 H    0.945
                             1 O    0.937
     8   7 N    3.028 --     7 C    1.033     5 H    0.953     2 H    0.952
     9   1 H    1.000 --     7 C    0.945
    10   6 C    3.926 --    11 N    1.022     1 O    0.974    13 O    0.947
                            12 H    0.939
    11   7 N    3.020 --    10 C    1.022    15 H    0.956     3 H    0.951
    12   1 H    0.999 --    10 C    0.939
    13   8 O    2.284 --    16 C    1.091    10 C    0.947    17 N    0.128
    14   1 H    0.975 --    17 N    0.948
    15   1 H    0.970 --    11 N    0.956
    16   6 C    3.923 --    17 N    1.871    13 O    1.091    18 H    0.932
    17   7 N    3.014 --    16 C    1.871    14 H    0.948    13 O    0.128
    18   1 H    1.000 --    16 C    0.932
 ---------------------------------------------------------------------------

molecular dipole:
                 x           y           z       tot (Debye)
 q only:       -0.027       0.662       0.511
   full:       -0.062       1.206       0.594       3.420

 projected vibrational frequencies (cm⁻¹)
eigval :       -0.00    -0.00    -0.00     0.00     0.00     0.00
eigval :       46.78    53.44   106.88   124.04   162.39   168.37
eigval :      187.59   217.44   261.73   332.91   414.22   450.77
eigval :      479.50   521.94   580.20   711.66   780.68   874.91
eigval :      922.88   942.07   961.48   971.43   991.34  1048.62
eigval :     1077.38  1102.39  1139.78  1161.71  1190.01  1232.88
eigval :     1237.14  1289.76  1311.12  1337.15  1353.20  1358.23
eigval :     1500.41  1534.36  1734.72  2803.95  2821.11  2834.85
eigval :     3389.17  3402.67  3432.58  3453.52  3473.57  3546.68

   temp. (K)  partition function   enthalpy   heat capacity  entropy
                                   cal/mol     cal/K/mol   cal/K/mol   J/K/mol
 298.15  VIB  0.353E+04             5119.125     30.884     32.086
         ROT  0.584E+06              888.752      2.981     29.369
         INT  0.206E+10             6007.877     33.865     61.455
         TR   0.152E+28             1481.254      4.968     40.597
         TOT                        7489.1312    38.8332   102.0514   426.9831

       T/K    H(0)-H(T)+PV         H(T)/Eh          T*S/Eh         G(T)/Eh
   ------------------------------------------------------------------------
    298.15    0.119347E-01    0.150975E+00    0.484879E-01    0.102487E+00
   ------------------------------------------------------------------------

         :::::::::::::::::::::::::::::::::::::::::::::::::::::
         ::                  THERMODYNAMIC                  ::
         :::::::::::::::::::::::::::::::::::::::::::::::::::::
         :: total free energy         -31.838388408596 Eh   ::
         ::.................................................::
         :: total energy              -31.940875494732 Eh   ::
         :: zero point energy           0.139040312002 Eh   ::
         :: G(RRHO) w/o ZPVE           -0.036553225865 Eh   ::
         :: G(RRHO) contrib.            0.102487086136 Eh   ::
         :::::::::::::::::::::::::::::::::::::::::::::::::::::

           -------------------------------------------------
          | TOTAL ENERGY              -31.940875494732 Eh   |
          | TOTAL ENTHALPY            -31.789900492441 Eh   |
          | TOTAL FREE ENERGY         -31.838388408596 Eh   |
          | GRADIENT NORM               0.000017599593 Eh/α |
          | HOMO-LUMO GAP               4.309578434312 eV   |
           -------------------------------------------------

 * finished run on 2025/01/10 at 14:24:59.216
normal termination of xtb
