   * xtb version 6.7.1 (edcfbbe) compiled by 'albert@albert-system' on 2024-07-22

   ID    Z sym.   atoms
    1    8 O      1
    2    1 H      2, 3, 6, 8-10, 13
    3    6 C      4, 11
    4    7 N      5, 7, 12

          program call               : /home/adpal/xtb-dist/bin/xtb ./results/p_{0,16}_coordinatesxTB.xyz --ohess --uhf 1 --parallel 8
          :  Hamiltonian                  GFN2-xTB          :
 * total energy  :   -20.6626512 Eh     change       -0.2131628E-13 Eh
   *** GEOMETRY OPTIMIZATION CONVERGED AFTER 1 ITERATIONS ***

 final structure:
================
13
 xtb: 6.7.1 (edcfbbe)
O            0.83668232872506       -1.37356441610464        0.29449175757539
H            2.68105000309680       -1.90222072898013       -1.27133176851425
H            4.90003969548168       -3.16272754226729       -1.15205274952489
C            2.01414538690657       -1.25953013255311        0.51227505313468
N            2.98460133157415       -1.55911757906729       -0.36970701080136
H            2.42006029152536       -0.89235679753184        1.47166660332036
N            4.92061986823594       -0.44917289206691       -1.07800788678049
H            5.96279193693033       -2.75841851844115        0.04141075305077
H            5.89165736056517       -0.23442499353981       -0.89101273118465
H            4.83145071098527       -0.75462208335921       -2.04104072629557
C            4.39883702441456       -1.44011931351334       -0.15576710349760
N            4.98606337703793       -2.76501618989814       -0.22303312939467
H            4.55491068452105       -1.06009881267718        0.86148893891225

          :  Hamiltonian                  GFN2-xTB          :
         :: gradient norm              0.000039457620 Eh/a0 ::
         :: HOMO-LUMO gap              4.836862632544 eV    ::
         :: SCC energy               -20.883961324270 Eh    ::
         :: -> dispersion             -0.006917998531 Eh    ::
         :: repulsion energy           0.221310087601 Eh    ::

    * Orbital Energies and Occupations

         #    Occupation            Energy/Eh            Energy/eV
      -------------------------------------------------------------
         1        2.0000           -0.6991426             -19.0246
       ...           ...                  ...                  ...
         6        2.0000           -0.6131533             -16.6848
         7        2.0000           -0.5775662             -15.7164
         8        2.0000           -0.5632184             -15.3260
         9        2.0000           -0.5500916             -14.9688
        10        2.0000           -0.5310705             -14.4512
        11        2.0000           -0.5291081             -14.3978
        12        2.0000           -0.5227516             -14.2248
        13        2.0000           -0.5006750             -13.6241
        14        2.0000           -0.4818754             -13.1125
        15        2.0000           -0.4227751             -11.5043
        16        2.0000           -0.4190647             -11.4033
        17        2.0000           -0.3997521             -10.8778
        18        2.0000           -0.3899336             -10.6106 (HOMO)
        19                         -0.2121822              -5.7738 (LUMO)
        20                         -0.0098672              -0.2685
        21                          0.0403185               1.0971
        22                          0.0433312               1.1791
        23                          0.0622136               1.6929
        24                          0.1015009               2.7620
        25                          0.1582674               4.3067
        26                          0.1971518               5.3648
        27                          0.2066864               5.6242
        28                          0.2206071               6.0030
        29                          0.2297323               6.2513
       ...                                ...                  ...
        31                          0.6439636              17.5231
      -------------------------------------------------------------
                  HL-Gap            0.1777514 Eh            4.8369 eV

     #   Z          covCN         q      C6AA      α(0)
     1   8 O        0.858    -0.395    21.590     6.230
     2   1 H        0.860     0.192     1.147     1.677
     3   1 H        0.860     0.149     1.406     1.858
     4   6 C        2.693     0.257    22.671     7.793
     5   7 N        2.693    -0.178    24.848     7.403
     6   1 H        0.923     0.012     2.857     2.643
     7   7 N        2.634    -0.365    29.409     8.054
     8   1 H        0.860     0.152     1.385     1.843
     9   1 H        0.860     0.152     1.385     1.843
    10   1 H        0.860     0.149     1.406     1.858
    11   6 C        3.652     0.185    17.932     6.082
    12   7 N        2.634    -0.365    29.409     8.054
    13   1 H        0.924     0.053     2.284     2.363

Wiberg/Mayer (AO) data.
largest (>0.10) Wiberg bond orders for each atom

     #   Z sym  total        # sym  WBO       # sym  WBO       # sym  WBO
 ---------------------------------------------------------------------------
     1   8 O    2.038 --     4 C    1.747     5 N    0.210
     2   1 H    0.963 --     5 N    0.927
     3   1 H    0.978 --    12 N    0.961
     4   6 C    3.950 --     1 O    1.747     5 N    1.259     6 H    0.919
     5   7 N    3.451 --     4 C    1.259    11 C    0.991     2 H    0.927
                             1 O    0.210
     6   1 H    1.000 --     4 C    0.919
     7   7 N    3.021 --    11 C    1.002    10 H    0.961     9 H    0.961
     8   1 H    0.976 --    12 N    0.961
     9   1 H    0.976 --     7 N    0.961
    10   1 H    0.978 --     7 N    0.961
    11   6 C    3.969 --    12 N    1.002     7 N    1.002     5 N    0.991
                            13 H    0.952
    12   7 N    3.021 --    11 C    1.002     3 H    0.961     8 H    0.961
    13   1 H    0.997 --    11 C    0.952
 ---------------------------------------------------------------------------

molecular dipole:
                 x           y           z       tot (Debye)
 q only:        1.705      -0.134      -0.492
   full:        2.348      -0.238      -0.821       6.352

 projected vibrational frequencies (cm⁻¹)
eigval :       -0.00    -0.00     0.00     0.00     0.00     0.00
eigval :       33.29   128.91   219.18   225.48   287.18   365.67
eigval :      446.71   540.61   574.52   589.24   833.61   885.42
eigval :      948.71   960.07  1026.04  1063.10  1088.99  1196.78
eigval :     1250.80  1288.19  1296.82  1359.11  1423.22  1544.24
eigval :     1550.11  1782.69  2791.82  2928.47  3400.39  3401.67
eigval :     3420.36  3444.25  3448.92

   temp. (K)  partition function   enthalpy   heat capacity  entropy
                                   cal/mol     cal/K/mol   cal/K/mol   J/K/mol
 298.15  VIB   81.3                 2867.209     18.567     16.948
         ROT  0.167E+06              888.752      2.981     26.875
         INT  0.135E+08             3755.962     21.548     43.823
         TR   0.814E+27             1481.254      4.968     39.356
         TOT                        5237.2157    26.5162    83.1791   348.0216

       T/K    H(0)-H(T)+PV         H(T)/Eh          T*S/Eh         G(T)/Eh
   ------------------------------------------------------------------------
    298.15    0.834603E-02    0.112560E+00    0.395211E-01    0.730387E-01
   ------------------------------------------------------------------------

         :::::::::::::::::::::::::::::::::::::::::::::::::::::
         ::                  THERMODYNAMIC                  ::
         :::::::::::::::::::::::::::::::::::::::::::::::::::::
         :: total free energy         -20.589612562880 Eh   ::
         ::.................................................::
         :: total energy              -20.662651236669 Eh   ::
         :: zero point energy           0.104213736517 Eh   ::
         :: G(RRHO) w/o ZPVE           -0.031175062728 Eh   ::
         :: G(RRHO) contrib.            0.073038673790 Eh   ::
         :::::::::::::::::::::::::::::::::::::::::::::::::::::

           -------------------------------------------------
          | TOTAL ENERGY              -20.662651236669 Eh   |
          | TOTAL ENTHALPY            -20.550091465662 Eh   |
          | TOTAL FREE ENERGY         -20.589612562880 Eh   |
          | GRADIENT NORM               0.000039463685 Eh/α |
          | HOMO-LUMO GAP               4.836862521596 eV   |
           -------------------------------------------------

 * finished run on 2025/01/10 at 14:24:15.898
normal termination of xtb
