   * xtb version 6.7.1 (edcfbbe) compiled by 'albert@albert-system' on 2024-07-22

   ID    Z sym.   atoms
    1    6 C      1, 8
    2    7 N      2, 4, 9
    3    1 H      3, 5-7, 10

          program call               : /home/adpal/xtb-dist/bin/xtb ./results/p_{0,3}_coordinatesxTB.xyz --ohess --uhf 1 --parallel 8
          :  Hamiltonian                  GFN2-xTB          :
 * total energy  :   -15.5538341 Eh     change       -0.3552714E-14 Eh
   *** GEOMETRY OPTIMIZATION CONVERGED AFTER 1 ITERATIONS ***

 final structure:
================
10
 xtb: 6.7.1 (edcfbbe)
C            0.60979164740537       -0.51570666886717       -0.32877978209134
N           -0.00095149036070        0.07135115107083        0.60715930968149
H            0.00116905373850       -0.96382836642368       -1.11245924736500
N            2.75441518489333       -1.84457538202113        1.17410219091475
H            0.61334558152835        0.50995053988147        1.29363606428079
H            3.53613638637505       -2.35537070467500        1.54153007229404
H            1.83133001368080       -2.10782835962580        1.47933268754631
C            2.88190684090076       -1.05584044209879        0.07981135887977
N            1.94757562352024       -0.54321463172982       -0.59509203786743
H            3.90261115831842       -0.87320713551102       -0.24118061627325

          :  Hamiltonian                  GFN2-xTB          :
         :: gradient norm              0.000026061039 Eh/a0 ::
         :: HOMO-LUMO gap              3.502921802127 eV    ::
         :: SCC energy               -15.778244992463 Eh    ::
         :: -> dispersion             -0.005027991480 Eh    ::
         :: repulsion energy           0.224410932741 Eh    ::

    * Orbital Energies and Occupations

         #    Occupation            Energy/Eh            Energy/eV
      -------------------------------------------------------------
         1        2.0000           -0.6781599             -18.4537
         2        2.0000           -0.6475556             -17.6209
         3        2.0000           -0.6294122             -17.1272
         4        2.0000           -0.5990867             -16.3020
         5        2.0000           -0.5763840             -15.6842
         6        2.0000           -0.5691305             -15.4868
         7        2.0000           -0.5404738             -14.7070
         8        2.0000           -0.5158218             -14.0362
         9        2.0000           -0.4995621             -13.5938
        10        2.0000           -0.4692736             -12.7696
        11        2.0000           -0.4627118             -12.5910
        12        2.0000           -0.4055678             -11.0361
        13        2.0000           -0.3893742             -10.5954
        14        2.0000           -0.3607469              -9.8164 (HOMO)
        15                         -0.2320170              -6.3135 (LUMO)
        16                         -0.1898388              -5.1658
        17                          0.0062014               0.1687
        18                          0.1021428               2.7794
        19                          0.1230793               3.3492
        20                          0.1651849               4.4949
        21                          0.2470894               6.7236
        22                          0.2947218               8.0198
        23                          0.3741907              10.1822
        24                          0.5354341              14.5699
        25                          0.6665291              18.1372
      -------------------------------------------------------------
                  HL-Gap            0.1287300 Eh            3.5029 eV

     #   Z          covCN         q      C6AA      α(0)
     1   6 C        2.769     0.155    24.633     8.128
     2   7 N        1.774    -0.361    30.215     8.140
     3   1 H        0.925     0.034     2.524     2.485
     4   7 N        2.637    -0.253    26.573     7.656
     5   1 H        0.860     0.128     1.557     1.955
     6   1 H        0.861     0.176     1.236     1.741
     7   1 H        0.860     0.183     1.197     1.714
     8   6 C        2.770     0.142    24.892     8.171
     9   7 N        1.830    -0.252    27.406     7.758
    10   1 H        0.925     0.047     2.363     2.404

Wiberg/Mayer (AO) data.
largest (>0.10) Wiberg bond orders for each atom

     #   Z sym  total        # sym  WBO       # sym  WBO       # sym  WBO
 ---------------------------------------------------------------------------
     1   6 C    3.967 --     2 N    1.818     9 N    1.170     3 H    0.939
     2   7 N    3.005 --     1 C    1.818     5 H    0.954     9 N    0.154
     3   1 H    0.999 --     1 C    0.939
     4   7 N    3.364 --     8 C    1.238     6 H    0.952     7 H    0.945
                             9 N    0.189
     5   1 H    0.983 --     2 N    0.954
     6   1 H    0.969 --     4 N    0.952
     7   1 H    0.967 --     4 N    0.945
     8   6 C    3.969 --     9 N    1.705     4 N    1.238    10 H    0.948
     9   7 N    3.250 --     8 C    1.705     1 C    1.170     4 N    0.189
                             2 N    0.154
    10   1 H    0.998 --     8 C    0.948
 ---------------------------------------------------------------------------

molecular dipole:
                 x           y           z       tot (Debye)
 q only:        1.014      -0.873       0.479
   full:        1.411      -1.168       0.671       4.959

 projected vibrational frequencies (cm⁻¹)
eigval :       -0.00     0.00     0.00     0.00     0.00     0.00
eigval :       80.75   200.70   244.25   299.43   511.60   531.07
eigval :      651.90   790.70   904.01   978.98  1042.19  1070.86
eigval :     1195.36  1240.11  1316.48  1344.59  1470.21  1681.92
eigval :     1757.63  2974.36  3007.75  3312.36  3467.00  3541.85

   temp. (K)  partition function   enthalpy   heat capacity  entropy
                                   cal/mol     cal/K/mol   cal/K/mol   J/K/mol
 298.15  VIB   12.5                 1940.772     13.458     11.423
         ROT  0.729E+05              888.752      2.981     25.233
         INT  0.910E+06             2829.524     16.439     36.656
         TR   0.580E+27             1481.254      4.968     38.683
         TOT                        4310.7783    21.4068    75.3387   315.2172

       T/K    H(0)-H(T)+PV         H(T)/Eh          T*S/Eh         G(T)/Eh
   ------------------------------------------------------------------------
    298.15    0.686966E-02    0.834528E-01    0.357959E-01    0.476569E-01
   ------------------------------------------------------------------------

         :::::::::::::::::::::::::::::::::::::::::::::::::::::
         ::                  THERMODYNAMIC                  ::
         :::::::::::::::::::::::::::::::::::::::::::::::::::::
         :: total free energy         -15.506177158335 Eh   ::
         ::.................................................::
         :: total energy              -15.553834059722 Eh   ::
         :: zero point energy           0.076583095537 Eh   ::
         :: G(RRHO) w/o ZPVE           -0.028926194150 Eh   ::
         :: G(RRHO) contrib.            0.047656901387 Eh   ::
         :::::::::::::::::::::::::::::::::::::::::::::::::::::

           -------------------------------------------------
          | TOTAL ENERGY              -15.553834059722 Eh   |
          | TOTAL ENTHALPY            -15.470381301616 Eh   |
          | TOTAL FREE ENERGY         -15.506177158335 Eh   |
          | GRADIENT NORM               0.000026038669 Eh/α |
          | HOMO-LUMO GAP               3.502921562443 eV   |
           -------------------------------------------------

 * finished run on 2025/01/10 at 14:24:01.780
normal termination of xtb
