   * xtb version 6.7.1 (edcfbbe) compiled by 'albert@albert-system' on 2024-07-22

   ID    Z sym.   atoms
    1    8 O      1, 2, 9
    2    1 H      3, 5, 8, 10, 11, 14
    3    6 C      4, 6, 12
    4    7 N      7, 13

          program call               : /home/adpal/xtb-dist/bin/xtb ./results/p_{0,58}_coordinatesxTB.xyz --ohess --uhf 1 --parallel 8
          :  Hamiltonian                  GFN2-xTB          :
 * total energy  :   -27.4447156 Eh     change       -0.3552714E-13 Eh
   *** GEOMETRY OPTIMIZATION CONVERGED AFTER 1 ITERATIONS ***

 final structure:
================
14
 xtb: 6.7.1 (edcfbbe)
O            4.11923712125941       -1.47555463231766       -1.25083729770619
O            4.11289751050464       -1.68130959393826       -3.44306200488675
H            4.19039369881749        0.15267752176155        0.48084935844550
C            4.43533536848495       -2.21941320380050       -2.24509321541343
H            4.37760819548189       -2.28685162421594       -4.14676658604899
C            3.48901485050998       -0.17703462754730       -1.39098662372524
N            3.35125729494658        0.32198937742978       -0.05758272999720
H            4.14297454215253        0.42140847735871       -2.05953020302907
O            0.07216594598818       -1.00843105813897       -1.97812254151599
H            3.12000384566559        1.30641985012415       -0.04886611589661
H            2.16773726724903       -0.17962295619423       -3.02436986767234
C            1.11065348321697       -0.79411599268315       -1.41169284680270
N            2.20606872216142       -0.27088678638756       -2.01757661047554
H            1.27919215356134       -0.96844475145057       -0.33853271527539

          :  Hamiltonian                  GFN2-xTB          :
         :: gradient norm              0.000023707339 Eh/a0 ::
         :: HOMO-LUMO gap              3.433182850785 eV    ::
         :: SCC energy               -27.671174946814 Eh    ::
         :: -> dispersion             -0.009149448916 Eh    ::
         :: repulsion energy           0.226459388898 Eh    ::

    * Orbital Energies and Occupations

         #    Occupation            Energy/Eh            Energy/eV
      -------------------------------------------------------------
         1        2.0000           -0.7560209             -20.5724
       ...           ...                  ...                  ...
        11        2.0000           -0.5851939             -15.9239
        12        2.0000           -0.5652314             -15.3807
        13        2.0000           -0.5524415             -15.0327
        14        2.0000           -0.5445728             -14.8186
        15        2.0000           -0.5360506             -14.5867
        16        2.0000           -0.5290017             -14.3949
        17        2.0000           -0.5157306             -14.0337
        18        2.0000           -0.5036823             -13.7059
        19        2.0000           -0.4907188             -13.3531
        20        2.0000           -0.4370751             -11.8934
        21        2.0000           -0.4192707             -11.4089
        22        2.0000           -0.3981625             -10.8346
        23        2.0000           -0.3824354             -10.4066 (HOMO)
        24                         -0.2562682              -6.9734 (LUMO)
        25                         -0.2225840              -6.0568
        26                         -0.0225341              -0.6132
        27                         -0.0036076              -0.0982
        28                          0.0417043               1.1348
        29                          0.0657576               1.7894
        30                          0.1029426               2.8012
        31                          0.1122482               3.0544
        32                          0.1620532               4.4097
        33                          0.2053870               5.5889
        34                          0.2445754               6.6552
       ...                                ...                  ...
        38                          0.6379928              17.3607
      -------------------------------------------------------------
                  HL-Gap            0.1261671 Eh            3.4332 eV

     #   Z          covCN         q      C6AA      α(0)
     1   8 O        1.702    -0.192    17.214     5.602
     2   8 O        1.659    -0.364    20.169     6.063
     3   1 H        0.860     0.178     1.228     1.736
     4   6 C        1.724     0.061    29.792     8.833
     5   1 H        0.805     0.315     0.677     1.292
     6   6 C        3.606     0.248    17.233     5.999
     7   7 N        2.635    -0.345    28.881     7.982
     8   1 H        0.922     0.021     2.717     2.578
     9   8 O        0.858    -0.388    21.447     6.209
    10   1 H        0.860     0.165     1.301     1.787
    11   1 H        0.860     0.201     1.099     1.642
    12   6 C        2.696     0.259    22.627     7.785
    13   7 N        2.686    -0.196    25.260     7.464
    14   1 H        0.923     0.037     2.492     2.469

Wiberg/Mayer (AO) data.
largest (>0.10) Wiberg bond orders for each atom

     #   Z sym  total        # sym  WBO       # sym  WBO       # sym  WBO
 ---------------------------------------------------------------------------
     1   8 O    2.451 --     4 C    1.394     6 C    0.883
     2   8 O    2.246 --     4 C    1.245     5 H    0.886
     3   1 H    0.968 --     7 N    0.951
     4   6 C    2.739 --     1 O    1.394     2 O    1.245
     5   1 H    0.901 --     2 O    0.886
     6   6 C    3.955 --     7 N    1.033    13 N    1.004     8 H    0.943
                             1 O    0.883
     7   7 N    3.024 --     6 C    1.033    10 H    0.956     3 H    0.951
     8   1 H    1.000 --     6 C    0.943
     9   8 O    2.047 --    12 C    1.767    13 N    0.195
    10   1 H    0.973 --     7 N    0.956
    11   1 H    0.959 --    13 N    0.925
    12   6 C    3.941 --     9 O    1.767    13 N    1.223    14 H    0.922
    13   7 N    3.424 --    12 C    1.223     6 C    1.004    11 H    0.925
                             9 O    0.195
    14   1 H    0.999 --    12 C    0.922
 ---------------------------------------------------------------------------

molecular dipole:
                 x           y           z       tot (Debye)
 q only:        1.376       0.574      -0.122
   full:        1.677       1.132      -0.455       5.273

 projected vibrational frequencies (cm⁻¹)
eigval :       -0.00    -0.00    -0.00    -0.00     0.00     0.00
eigval :       50.67    92.41   137.45   154.91   193.67   211.78
eigval :      331.80   367.54   458.81   498.35   604.54   645.12
eigval :      679.80   727.41   796.46   901.84   954.04   990.63
eigval :     1114.16  1136.69  1161.26  1195.36  1239.54  1271.42
eigval :     1284.95  1331.76  1346.03  1398.70  1507.30  1777.14
eigval :     2750.10  2856.36  3416.38  3429.78  3468.37  3517.82

   temp. (K)  partition function   enthalpy   heat capacity  entropy
                                   cal/mol     cal/K/mol   cal/K/mol   J/K/mol
 298.15  VIB   309.                 3820.505     24.079     23.533
         ROT  0.373E+06              888.752      2.981     28.477
         INT  0.115E+09             4709.258     27.060     52.010
         TR   0.124E+28             1481.254      4.968     40.195
         TOT                        6190.5115    32.0279    92.2049   385.7855

       T/K    H(0)-H(T)+PV         H(T)/Eh          T*S/Eh         G(T)/Eh
   ------------------------------------------------------------------------
    298.15    0.986521E-02    0.110105E+00    0.438095E-01    0.662958E-01
   ------------------------------------------------------------------------

         :::::::::::::::::::::::::::::::::::::::::::::::::::::
         ::                  THERMODYNAMIC                  ::
         :::::::::::::::::::::::::::::::::::::::::::::::::::::
         :: total free energy         -27.378419794625 Eh   ::
         ::.................................................::
         :: total energy              -27.444715557917 Eh   ::
         :: zero point energy           0.100240100311 Eh   ::
         :: G(RRHO) w/o ZPVE           -0.033944337019 Eh   ::
         :: G(RRHO) contrib.            0.066295763291 Eh   ::
         :::::::::::::::::::::::::::::::::::::::::::::::::::::

           -------------------------------------------------
          | TOTAL ENERGY              -27.444715557917 Eh   |
          | TOTAL ENTHALPY            -27.334610249647 Eh   |
          | TOTAL FREE ENERGY         -27.378419794625 Eh   |
          | GRADIENT NORM               0.000023713189 Eh/α |
          | HOMO-LUMO GAP               3.433182831176 eV   |
           -------------------------------------------------

 * finished run on 2025/01/10 at 14:26:33.682
normal termination of xtb
