   * xtb version 6.7.1 (edcfbbe) compiled by 'albert@albert-system' on 2024-07-22

   ID    Z sym.   atoms
    1    6 C      1, 7, 13
    2    7 N      2, 8, 14
    3    1 H      3, 5, 6, 9, 11, 12, 15
    4    8 O      4, 10

          program call               : /home/adpal/xtb-dist/bin/xtb ./results/p_{0,23}_coordinatesxTB.xyz --ohess --uhf 1 --parallel 8
          :  Hamiltonian                  GFN2-xTB          :
 * total energy  :   -26.8533386 Eh     change       -0.6039613E-13 Eh
   *** GEOMETRY OPTIMIZATION CONVERGED AFTER 1 ITERATIONS ***

 final structure:
================
15
 xtb: 6.7.1 (edcfbbe)
C            2.11137202866666        1.51143186743551       -2.34092737065667
N            2.15271711417161        2.54043629064965       -3.05458536606299
H            1.33953409580547        0.72769148634155       -2.33679459396202
O            3.10601505843906        1.30142581441329       -1.47062594872744
H            2.85947357905420       -1.87053563228701       -1.00268364912351
H            1.37268041574281        2.64960506540995       -3.69165053402972
C            3.04918061945409        0.11289362802077       -0.67099838374433
N            2.99239106181932       -1.02884127721477       -1.54904350076224
H            2.11568877969669        0.12366518383223       -0.08024074232644
O            5.29265972904843        2.02795580576589       -0.17363048911534
H            3.86991605171706       -1.11717821327923       -2.05313074002574
H            4.60785747393316        2.23398121998989       -0.83878990654916
C            5.05890163249282        0.86129313452199        0.40272992969858
N            4.13154077999532        0.02640792246670        0.24636425788863
H            5.81684157996349        0.61181770393347        1.13965703749835

          :  Hamiltonian                  GFN2-xTB          :
         :: gradient norm              0.000047233046 Eh/a0 ::
         :: HOMO-LUMO gap              4.334217540333 eV    ::
         :: SCC energy               -27.123989832319 Eh    ::
         :: -> dispersion             -0.009608836072 Eh    ::
         :: repulsion energy           0.270651205599 Eh    ::

    * Orbital Energies and Occupations

         #    Occupation            Energy/Eh            Energy/eV
      -------------------------------------------------------------
         1        2.0000           -0.7466051             -20.3162
       ...           ...                  ...                  ...
        11        2.0000           -0.5664469             -15.4138
        12        2.0000           -0.5606634             -15.2564
        13        2.0000           -0.5503532             -14.9759
        14        2.0000           -0.5312273             -14.4554
        15        2.0000           -0.5197520             -14.1432
        16        2.0000           -0.5154150             -14.0252
        17        2.0000           -0.5033077             -13.6957
        18        2.0000           -0.4786671             -13.0252
        19        2.0000           -0.4431242             -12.0580
        20        2.0000           -0.4284322             -11.6582
        21        2.0000           -0.4118904             -11.2081
        22        2.0000           -0.4062923             -11.0558
        23        2.0000           -0.3916234             -10.6566 (HOMO)
        24                         -0.2323438              -6.3224 (LUMO)
        25                         -0.2300319              -6.2595
        26                         -0.0190247              -0.5177
        27                          0.0448569               1.2206
        28                          0.0616734               1.6782
        29                          0.0996314               2.7111
        30                          0.1211486               3.2966
        31                          0.1236246               3.3640
        32                          0.1392274               3.7886
        33                          0.1622765               4.4158
        34                          0.2115800               5.7574
       ...                                ...                  ...
        39                          0.6203839              16.8815
      -------------------------------------------------------------
                  HL-Gap            0.1592796 Eh            4.3342 eV

     #   Z          covCN         q      C6AA      α(0)
     1   6 C        2.712     0.229    23.179     7.881
     2   7 N        1.775    -0.336    29.533     8.048
     3   1 H        0.923     0.005     2.969     2.694
     4   8 O        1.706    -0.284    18.724     5.842
     5   1 H        0.860     0.171     1.269     1.765
     6   1 H        0.860     0.159     1.342     1.814
     7   6 C        3.627     0.267    16.877     5.918
     8   7 N        2.632    -0.358    29.218     8.028
     9   1 H        0.922     0.035     2.522     2.484
    10   8 O        1.658    -0.359    20.077     6.049
    11   1 H        0.860     0.164     1.312     1.794
    12   1 H        0.804     0.344     0.603     1.220
    13   6 C        2.707     0.221    23.333     7.907
    14   7 N        1.823    -0.324    29.234     8.012
    15   1 H        0.925     0.066     2.125     2.280

Wiberg/Mayer (AO) data.
largest (>0.10) Wiberg bond orders for each atom

     #   Z sym  total        # sym  WBO       # sym  WBO       # sym  WBO
 ---------------------------------------------------------------------------
     1   6 C    3.930 --     2 N    1.865     4 O    1.101     3 H    0.932
     2   7 N    3.015 --     1 C    1.865     6 H    0.947     4 O    0.134
     3   1 H    1.000 --     1 C    0.932
     4   8 O    2.286 --     1 C    1.101     7 C    0.904     2 N    0.134
     5   1 H    0.971 --     8 N    0.954
     6   1 H    0.973 --     2 N    0.947
     7   6 C    3.940 --    14 N    1.027     8 N    1.014     9 H    0.941
                             4 O    0.904
     8   7 N    3.023 --     7 C    1.014    11 H    0.957     5 H    0.954
     9   1 H    0.999 --     7 C    0.941
    10   8 O    2.230 --    13 C    1.177    12 H    0.831    14 N    0.187
    11   1 H    0.973 --     8 N    0.957
    12   1 H    0.882 --    10 O    0.831
    13   6 C    3.941 --    14 N    1.766    10 O    1.177    15 H    0.941
    14   7 N    3.068 --    13 C    1.766     7 C    1.027    10 O    0.187
    15   1 H    0.995 --    13 C    0.941
 ---------------------------------------------------------------------------

molecular dipole:
                 x           y           z       tot (Debye)
 q only:       -0.204      -0.546       0.061
   full:       -0.464      -0.781       0.019       2.310

 projected vibrational frequencies (cm⁻¹)
eigval :       -0.00    -0.00    -0.00     0.00     0.00     0.00
eigval :       56.49    82.89   115.25   140.59   254.43   278.36
eigval :      309.72   383.75   441.78   532.57   610.84   705.27
eigval :      750.91   775.81   896.38   905.94   930.98   966.39
eigval :     1030.35  1066.76  1094.57  1152.51  1158.86  1222.01
eigval :     1257.51  1282.00  1305.45  1337.18  1355.83  1537.24
eigval :     1727.72  1758.90  2829.63  2837.21  3020.50  3322.98
eigval :     3392.80  3406.05  3448.66

   temp. (K)  partition function   enthalpy   heat capacity  entropy
                                   cal/mol     cal/K/mol   cal/K/mol   J/K/mol
 298.15  VIB   272.                 3724.318     24.020     23.083
         ROT  0.379E+06              888.752      2.981     28.509
         INT  0.103E+09             4613.070     27.001     51.592
         TR   0.123E+28             1481.254      4.968     40.170
         TOT                        6094.3240    31.9691    91.7626   383.9348

       T/K    H(0)-H(T)+PV         H(T)/Eh          T*S/Eh         G(T)/Eh
   ------------------------------------------------------------------------
    298.15    0.971192E-02    0.122898E+00    0.435994E-01    0.792989E-01
   ------------------------------------------------------------------------

         :::::::::::::::::::::::::::::::::::::::::::::::::::::
         ::                  THERMODYNAMIC                  ::
         :::::::::::::::::::::::::::::::::::::::::::::::::::::
         :: total free energy         -26.774039693458 Eh   ::
         ::.................................................::
         :: total energy              -26.853338626720 Eh   ::
         :: zero point energy           0.113186389854 Eh   ::
         :: G(RRHO) w/o ZPVE           -0.033887456593 Eh   ::
         :: G(RRHO) contrib.            0.079298933262 Eh   ::
         :::::::::::::::::::::::::::::::::::::::::::::::::::::

           -------------------------------------------------
          | TOTAL ENERGY              -26.853338626720 Eh   |
          | TOTAL ENTHALPY            -26.730440313434 Eh   |
          | TOTAL FREE ENERGY         -26.774039693458 Eh   |
          | GRADIENT NORM               0.000047236006 Eh/α |
          | HOMO-LUMO GAP               4.334217383866 eV   |
           -------------------------------------------------

 * finished run on 2025/01/10 at 14:24:35.013
normal termination of xtb
