   * xtb version 6.7.1 (edcfbbe) compiled by 'albert@albert-system' on 2024-07-22

   ID    Z sym.   atoms
    1    8 O      1, 10
    2    1 H      2, 3, 6, 9, 11, 12, 15
    3    6 C      4, 7, 13
    4    7 N      5, 8, 14

          program call               : /home/adpal/xtb-dist/bin/xtb ./results/p_{0,59}_coordinatesxTB.xyz --ohess --uhf 1 --parallel 8
          :  Hamiltonian                  GFN2-xTB          :
 * total energy  :   -26.8183179 Eh     change        0.7105427E-14 Eh
   *** GEOMETRY OPTIMIZATION CONVERGED AFTER 1 ITERATIONS ***

 final structure:
================
15
 xtb: 6.7.1 (edcfbbe)
O            1.89824938662465        0.19787142841197        0.16839178537218
H            3.34716050067240        1.87983594441632        2.38827604801433
H            5.04642585090785       -0.13346176308387        2.76051043327071
C            1.95192016672408        1.03090758358274        1.24392587116935
N            3.20117708747151        1.24491503921876        1.61677880793447
H            0.97099623169259        0.06230228275647       -0.06018519494955
C            4.42640900598304        0.72551221737807        1.01949589980202
N            5.38253523619508        0.54469882311414        2.08688465167712
H            4.15283571659367       -0.18898146684799        0.46382320139127
O            5.21425991661764        2.45626233527134       -2.02534389498798
H            6.27345023237006        0.22767022765570        1.72306542787673
H            5.40521251249043        2.48938252287521        0.46453241110574
C            4.82215371696583        1.61210182155940       -1.26343724763209
N            4.98015852854144        1.65798916084309        0.07431602002837
H            4.30266591014970        0.69353384284862       -1.59066422007260

          :  Hamiltonian                  GFN2-xTB          :
         :: gradient norm              0.000014482910 Eh/a0 ::
         :: HOMO-LUMO gap              3.540336725791 eV    ::
         :: SCC energy               -27.075636675726 Eh    ::
         :: -> dispersion             -0.009796542190 Eh    ::
         :: repulsion energy           0.257318739620 Eh    ::

    * Orbital Energies and Occupations

         #    Occupation            Energy/Eh            Energy/eV
      -------------------------------------------------------------
         1        2.0000           -0.7094922             -19.3063
       ...           ...                  ...                  ...
        11        2.0000           -0.5621191             -15.2960
        12        2.0000           -0.5546589             -15.0930
        13        2.0000           -0.5363529             -14.5949
        14        2.0000           -0.5300918             -14.4245
        15        2.0000           -0.5263864             -14.3237
        16        2.0000           -0.5164296             -14.0528
        17        2.0000           -0.5055726             -13.7573
        18        2.0000           -0.5002471             -13.6124
        19        2.0000           -0.4428094             -12.0495
        20        2.0000           -0.4262340             -11.5984
        21        2.0000           -0.4126346             -11.2284
        22        2.0000           -0.4026545             -10.9568
        23        2.0000           -0.3591015              -9.7716 (HOMO)
        24                         -0.2289965              -6.2313 (LUMO)
        25                         -0.2164204              -5.8891
        26                         -0.0117222              -0.3190
        27                          0.0165229               0.4496
        28                          0.0398094               1.0833
        29                          0.0683420               1.8597
        30                          0.0904104               2.4602
        31                          0.1191084               3.2411
        32                          0.1415557               3.8519
        33                          0.1848753               5.0307
        34                          0.2025350               5.5113
       ...                                ...                  ...
        39                          0.6384065              17.3719
      -------------------------------------------------------------
                  HL-Gap            0.1301050 Eh            3.5403 eV

     #   Z          covCN         q      C6AA      α(0)
     1   8 O        1.663    -0.372    20.315     6.085
     2   1 H        0.860     0.181     1.207     1.721
     3   1 H        0.860     0.161     1.331     1.808
     4   6 C        1.767    -0.052    32.670     9.241
     5   7 N        2.692    -0.127    23.760     7.239
     6   1 H        0.805     0.301     0.717     1.330
     7   6 C        3.654     0.178    18.033     6.097
     8   7 N        2.640    -0.357    29.191     8.024
     9   1 H        0.923     0.047     2.364     2.405
    10   8 O        0.858    -0.397    21.625     6.235
    11   1 H        0.860     0.159     1.341     1.814
    12   1 H        0.860     0.198     1.117     1.655
    13   6 C        2.693     0.258    22.654     7.790
    14   7 N        2.690    -0.192    25.164     7.450
    15   1 H        0.922     0.015     2.809     2.621

Wiberg/Mayer (AO) data.
largest (>0.10) Wiberg bond orders for each atom

     #   Z sym  total        # sym  WBO       # sym  WBO       # sym  WBO
 ---------------------------------------------------------------------------
     1   8 O    2.216 --     4 C    1.213     6 H    0.894
     2   1 H    0.967 --     5 N    0.938
     3   1 H    0.973 --     8 N    0.958
     4   6 C    2.777 --     5 N    1.481     1 O    1.213
     5   7 N    3.527 --     4 C    1.481     7 C    0.954     2 H    0.938
     6   1 H    0.909 --     1 O    0.894
     7   6 C    3.967 --     8 N    1.016    14 N    0.985     5 N    0.954
                             9 H    0.941
     8   7 N    3.011 --     7 C    1.016     3 H    0.958    11 H    0.957
     9   1 H    0.998 --     7 C    0.941
    10   8 O    2.040 --    13 C    1.747    14 N    0.206
    11   1 H    0.975 --     8 N    0.957
    12   1 H    0.961 --    14 N    0.925
    13   6 C    3.949 --    10 O    1.747    14 N    1.252    15 H    0.920
    14   7 N    3.442 --    13 C    1.252     7 C    0.985    12 H    0.925
                            10 O    0.206
    15   1 H    1.000 --    13 C    0.920
 ---------------------------------------------------------------------------

molecular dipole:
                 x           y           z       tot (Debye)
 q only:       -0.182      -0.681       1.492
   full:        0.004      -1.227       1.368       4.671

 projected vibrational frequencies (cm⁻¹)
eigval :       -0.00    -0.00    -0.00     0.00     0.00     0.00
eigval :       31.52    55.95   149.26   189.49   235.90   244.66
eigval :      271.49   369.48   478.62   498.60   586.77   601.63
eigval :      622.34   669.75   683.48   891.35   943.38   952.91
eigval :     1062.28  1102.30  1135.93  1181.22  1207.02  1214.47
eigval :     1247.88  1269.36  1320.82  1351.78  1405.76  1442.96
eigval :     1530.56  1779.90  2793.61  2830.85  3408.78  3415.66
eigval :     3440.98  3444.36  3527.40

   temp. (K)  partition function   enthalpy   heat capacity  entropy
                                   cal/mol     cal/K/mol   cal/K/mol   J/K/mol
 298.15  VIB   569.                 3914.421     24.388     23.787
         ROT  0.427E+06              888.752      2.981     28.744
         INT  0.243E+09             4803.174     27.369     52.531
         TR   0.123E+28             1481.254      4.968     40.170
         TOT                        6284.4275    32.3368    92.7012   387.8619

       T/K    H(0)-H(T)+PV         H(T)/Eh          T*S/Eh         G(T)/Eh
   ------------------------------------------------------------------------
    298.15    0.100149E-01    0.122990E+00    0.440453E-01    0.789449E-01
   ------------------------------------------------------------------------

         :::::::::::::::::::::::::::::::::::::::::::::::::::::
         ::                  THERMODYNAMIC                  ::
         :::::::::::::::::::::::::::::::::::::::::::::::::::::
         :: total free energy         -26.739373043025 Eh   ::
         ::.................................................::
         :: total energy              -26.818317936106 Eh   ::
         :: zero point energy           0.112975363589 Eh   ::
         :: G(RRHO) w/o ZPVE           -0.034030470507 Eh   ::
         :: G(RRHO) contrib.            0.078944893081 Eh   ::
         :::::::::::::::::::::::::::::::::::::::::::::::::::::

           -------------------------------------------------
          | TOTAL ENERGY              -26.818317936106 Eh   |
          | TOTAL ENTHALPY            -26.695327699833 Eh   |
          | TOTAL FREE ENERGY         -26.739373043025 Eh   |
          | GRADIENT NORM               0.000014484486 Eh/α |
          | HOMO-LUMO GAP               3.540336885718 eV   |
           -------------------------------------------------

 * finished run on 2025/01/10 at 14:26:37.413
normal termination of xtb
