   * xtb version 6.7.1 (edcfbbe) compiled by 'albert@albert-system' on 2024-07-22

   ID    Z sym.   atoms
    1    6 C      1, 7, 13
    2    7 N      2, 8, 14
    3    1 H      3, 5, 6, 9, 11, 12, 15
    4    8 O      4, 10

          program call               : /home/adpal/xtb-dist/bin/xtb ./results/p_{0,28}_coordinatesxTB.xyz --ohess --uhf 1 --parallel 8
          :  Hamiltonian                  GFN2-xTB          :
 * total energy  :   -26.8022351 Eh     change       -0.3197442E-13 Eh
   *** GEOMETRY OPTIMIZATION CONVERGED AFTER 1 ITERATIONS ***

 final structure:
================
15
 xtb: 6.7.1 (edcfbbe)
C            1.09070506552600        0.03144050453586        0.33588608969694
N            0.57642816368293       -0.46355078963191        1.38037385848313
H            0.54394041946416        0.48786603520400       -0.49275423268573
O            2.21912381761666        0.95937282411968       -1.87287180774826
H           -0.43581329353643       -0.41002394164383        1.42461631291939
H            2.33768506078118        0.46113734512617        2.70824863331064
C            3.08711846012387        0.47298051692949       -0.95949150276403
N            2.45393668686327        0.02359939728450        0.14162620015543
H            2.72514961404473        1.26540363838388       -2.63662562448256
O            2.93950471948176       -1.79656581575866        1.55194195965937
H            3.92776912654727        0.17363617778749        3.02147718854558
H            2.00652307377465       -1.76291408928201        1.83306531053988
C            3.30437699268458       -0.50051556989410        1.21757539154797
N            3.26843655857739        0.44276605807156        2.30221759268073
H            4.32383553436793       -0.54502229123212        0.81714463014160

          :  Hamiltonian                  GFN2-xTB          :
         :: gradient norm              0.000015480286 Eh/a0 ::
         :: HOMO-LUMO gap              2.527166472012 eV    ::
         :: SCC energy               -27.049815375339 Eh    ::
         :: -> dispersion             -0.010349780608 Eh    ::
         :: repulsion energy           0.247580264022 Eh    ::

    * Orbital Energies and Occupations

         #    Occupation            Energy/Eh            Energy/eV
      -------------------------------------------------------------
         1        2.0000           -0.7204641             -19.6048
       ...           ...                  ...                  ...
        11        2.0000           -0.5565952             -15.1457
        12        2.0000           -0.5388250             -14.6622
        13        2.0000           -0.5347372             -14.5509
        14        2.0000           -0.5268532             -14.3364
        15        2.0000           -0.5153487             -14.0234
        16        2.0000           -0.5123912             -13.9429
        17        2.0000           -0.4918875             -13.3849
        18        2.0000           -0.4683699             -12.7450
        19        2.0000           -0.4408147             -11.9952
        20        2.0000           -0.4289686             -11.6728
        21        2.0000           -0.4015718             -10.9273
        22        2.0000           -0.3902492             -10.6192
        23        2.0000           -0.3667441              -9.9796 (HOMO)
        24                         -0.2738724              -7.4524 (LUMO)
        25                         -0.1990021              -5.4151
        26                          0.0034297               0.0933
        27                          0.0570292               1.5518
        28                          0.0711393               1.9358
        29                          0.0820931               2.2339
        30                          0.1098608               2.9895
        31                          0.1289610               3.5092
        32                          0.1538520               4.1865
        33                          0.1824661               4.9652
        34                          0.2278291               6.1995
       ...                                ...                  ...
        39                          0.5625286              15.3072
      -------------------------------------------------------------
                  HL-Gap            0.0928717 Eh            2.5272 eV

     #   Z          covCN         q      C6AA      α(0)
     1   6 C        2.766     0.156    24.616     8.125
     2   7 N        1.781    -0.358    30.126     8.129
     3   1 H        0.924     0.035     2.519     2.482
     4   8 O        1.662    -0.344    19.793     6.006
     5   1 H        0.860     0.145     1.437     1.878
     6   1 H        0.860     0.168     1.287     1.777
     7   6 C        1.794    -0.047    32.464     9.208
     8   7 N        2.746    -0.033    21.876     6.947
     9   1 H        0.805     0.309     0.694     1.308
    10   8 O        1.656    -0.456    21.968     6.327
    11   1 H        0.860     0.164     1.312     1.794
    12   1 H        0.804     0.323     0.656     1.272
    13   6 C        3.617     0.239    17.302     6.000
    14   7 N        2.634    -0.368    29.510     8.068
    15   1 H        0.924     0.068     2.112     2.273

Wiberg/Mayer (AO) data.
largest (>0.10) Wiberg bond orders for each atom

     #   Z sym  total        # sym  WBO       # sym  WBO       # sym  WBO
 ---------------------------------------------------------------------------
     1   6 C    3.962 --     2 N    1.821     8 N    1.142     3 H    0.938
     2   7 N    3.028 --     1 C    1.821     5 H    0.951
     3   1 H    0.999 --     1 C    0.938
     4   8 O    2.263 --     7 C    1.268     9 H    0.888
     5   1 H    0.979 --     2 N    0.951
     6   1 H    0.972 --    14 N    0.949
     7   6 C    2.726 --     8 N    1.333     4 O    1.268
     8   7 N    3.635 --     7 C    1.333     1 C    1.142    13 C    0.933
     9   1 H    0.904 --     4 O    0.888
    10   8 O    1.984 --    13 C    1.009    12 H    0.848
    11   1 H    0.973 --    14 N    0.956
    12   1 H    0.896 --    10 O    0.848
    13   6 C    3.950 --    14 N    1.021    10 O    1.009    15 H    0.951
                             8 N    0.933
    14   7 N    3.019 --    13 C    1.021    11 H    0.956     6 H    0.949
    15   1 H    0.995 --    13 C    0.951
 ---------------------------------------------------------------------------

molecular dipole:
                 x           y           z       tot (Debye)
 q only:       -0.010       0.384      -0.100
   full:       -0.844       0.471      -0.284       2.561

 projected vibrational frequencies (cm⁻¹)
eigval :       -0.00    -0.00    -0.00     0.00     0.00     0.00
eigval :       76.78   143.75   191.03   250.23   252.05   275.91
eigval :      302.80   375.23   480.24   493.30   544.85   588.91
eigval :      634.68   703.25   784.72   832.72   926.39   973.14
eigval :     1048.61  1064.67  1095.34  1125.72  1160.42  1213.42
eigval :     1233.80  1302.47  1312.16  1334.88  1348.83  1411.73
eigval :     1539.23  1684.19  2929.83  2953.13  3337.12  3382.74
eigval :     3394.03  3446.48  3503.22

   temp. (K)  partition function   enthalpy   heat capacity  entropy
                                   cal/mol     cal/K/mol   cal/K/mol   J/K/mol
 298.15  VIB   77.2                 3586.394     25.230     20.535
         ROT  0.328E+06              888.752      2.981     28.222
         INT  0.254E+08             4475.147     28.211     48.757
         TR   0.123E+28             1481.254      4.968     40.170
         TOT                        5956.4005    33.1789    88.9275   372.0726

       T/K    H(0)-H(T)+PV         H(T)/Eh          T*S/Eh         G(T)/Eh
   ------------------------------------------------------------------------
    298.15    0.949213E-02    0.122608E+00    0.422523E-01    0.803554E-01
   ------------------------------------------------------------------------

         :::::::::::::::::::::::::::::::::::::::::::::::::::::
         ::                  THERMODYNAMIC                  ::
         :::::::::::::::::::::::::::::::::::::::::::::::::::::
         :: total free energy         -26.721879740644 Eh   ::
         ::.................................................::
         :: total energy              -26.802235111316 Eh   ::
         :: zero point energy           0.113115555542 Eh   ::
         :: G(RRHO) w/o ZPVE           -0.032760184870 Eh   ::
         :: G(RRHO) contrib.            0.080355370672 Eh   ::
         :::::::::::::::::::::::::::::::::::::::::::::::::::::

           -------------------------------------------------
          | TOTAL ENERGY              -26.802235111316 Eh   |
          | TOTAL ENTHALPY            -26.679627427345 Eh   |
          | TOTAL FREE ENERGY         -26.721879740644 Eh   |
          | GRADIENT NORM               0.000015477473 Eh/α |
          | HOMO-LUMO GAP               2.527166497911 eV   |
           -------------------------------------------------

 * finished run on 2025/01/10 at 14:24:47.833
normal termination of xtb
