   * xtb version 6.7.1 (edcfbbe) compiled by 'albert@albert-system' on 2024-07-22

   ID    Z sym.   atoms
    1    8 O      1, 7, 13
    2    1 H      2, 3, 6, 8, 9, 12, 14, 15, 18
    3    6 C      4, 10, 16
    4    7 N      5, 11, 17

          program call               : /home/adpal/xtb-dist/bin/xtb ./results/p_{0,48}_coordinatesxTB.xyz --ohess --uhf 1 --parallel 8
          :  Hamiltonian                  GFN2-xTB          :
 * total energy  :   -31.9739842 Eh     change       -0.2842171E-13 Eh
   *** GEOMETRY OPTIMIZATION CONVERGED AFTER 1 ITERATIONS ***

 final structure:
================
18
 xtb: 6.7.1 (edcfbbe)
O            3.70594470481110       -2.18647541445166        1.56138558150202
H            2.01329430912369        2.67401889047808        0.01390121046688
H            3.87371156891715        0.29027909519683        1.67455318520203
C            3.34472650428380       -1.40820906704009        0.71979883035310
N            3.47166491199873       -0.06861469350725        0.81753545724913
H            2.87019749632837       -1.71230098859838       -0.22932230936268
O            0.10297503137720        0.85556739005109       -0.22350385405940
H            0.63381225411125        2.72350230614981        2.31276996124281
H           -0.24743491799418        1.63605568852080       -0.67356994227255
C            0.82484759030533        1.28613761211879        0.89089729963823
N            0.08804383439368        2.33209694660585        1.55571311915919
H            0.99163528925755        0.37475674662579        1.49232088139749
O            4.05111967839578        1.60314127482197       -0.71369913846316
H           -0.77836998923016        1.96523410577999        1.93245224625465
H            4.52608709002310        2.09262349141992       -0.02957784195582
C            3.00626537370826        0.90729512052994       -0.13197528601223
N            2.12732004906707        1.82848447274093        0.56662722282369
H            2.50471922112221        0.36713702255733       -0.95182662316349

          :  Hamiltonian                  GFN2-xTB          :
         :: gradient norm              0.000011774391 Eh/a0 ::
         :: HOMO-LUMO gap              4.975127107294 eV    ::
         :: SCC energy               -32.250499963902 Eh    ::
         :: -> dispersion             -0.011916576082 Eh    ::
         :: repulsion energy           0.276515768755 Eh    ::

    * Orbital Energies and Occupations

         #    Occupation            Energy/Eh            Energy/eV
      -------------------------------------------------------------
         1        2.0000           -0.7298233             -19.8595
       ...           ...                  ...                  ...
        15        2.0000           -0.5472418             -14.8912
        16        2.0000           -0.5379808             -14.6392
        17        2.0000           -0.5318253             -14.4717
        18        2.0000           -0.5194971             -14.1362
        19        2.0000           -0.5124840             -13.9454
        20        2.0000           -0.5045335             -13.7291
        21        2.0000           -0.4897825             -13.3277
        22        2.0000           -0.4686705             -12.7532
        23        2.0000           -0.4526578             -12.3174
        24        2.0000           -0.4292729             -11.6811
        25        2.0000           -0.4134340             -11.2501
        26        2.0000           -0.4065271             -11.0622
        27        2.0000           -0.4041374             -10.9971 (HOMO)
        28                         -0.2213048              -6.0220 (LUMO)
        29                         -0.0097436              -0.2651
        30                          0.0101968               0.2775
        31                          0.0468428               1.2747
        32                          0.0519914               1.4148
        33                          0.0587559               1.5988
        34                          0.0896203               2.4387
        35                          0.1032001               2.8082
        36                          0.1188859               3.2350
        37                          0.1324333               3.6037
        38                          0.1573849               4.2827
       ...                                ...                  ...
        45                          0.6380678              17.3627
      -------------------------------------------------------------
                  HL-Gap            0.1828326 Eh            4.9751 eV

     #   Z          covCN         q      C6AA      α(0)
     1   8 O        0.858    -0.389    21.456     6.210
     2   1 H        0.860     0.177     1.230     1.737
     3   1 H        0.860     0.197     1.119     1.657
     4   6 C        2.693     0.259    22.636     7.787
     5   7 N        2.687    -0.207    25.501     7.500
     6   1 H        0.923     0.018     2.768     2.602
     7   8 O        1.657    -0.457    21.992     6.331
     8   1 H        0.860     0.162     1.324     1.803
     9   1 H        0.805     0.311     0.689     1.304
    10   6 C        3.599     0.257    17.144     5.990
    11   7 N        2.637    -0.369    29.524     8.070
    12   1 H        0.923     0.018     2.765     2.600
    13   8 O        1.658    -0.429    21.419     6.248
    14   1 H        0.860     0.165     1.305     1.789
    15   1 H        0.805     0.313     0.684     1.299
    16   6 C        3.604     0.249    17.224     5.999
    17   7 N        2.690    -0.327    28.402     7.915
    18   1 H        0.923     0.052     2.295     2.369

Wiberg/Mayer (AO) data.
largest (>0.10) Wiberg bond orders for each atom

     #   Z sym  total        # sym  WBO       # sym  WBO       # sym  WBO
 ---------------------------------------------------------------------------
     1   8 O    2.045 --     4 C    1.756     5 N    0.206
     2   1 H    0.968 --    17 N    0.937
     3   1 H    0.961 --     5 N    0.925
     4   6 C    3.948 --     1 O    1.756     5 N    1.246     6 H    0.920
     5   7 N    3.434 --     4 C    1.246    16 C    0.978     3 H    0.925
                             1 O    0.206
     6   1 H    1.000 --     4 C    0.920
     7   8 O    1.979 --    10 C    0.990     9 H    0.883
     8   1 H    0.974 --    11 N    0.958
     9   1 H    0.903 --     7 O    0.883
    10   6 C    3.955 --    11 N    1.013     7 O    0.990    17 N    0.988
                            12 H    0.946
    11   7 N    3.009 --    10 C    1.013     8 H    0.958    14 H    0.957
    12   1 H    1.000 --    10 C    0.946
    13   8 O    1.998 --    16 C    1.012    15 H    0.883
    14   1 H    0.972 --    11 N    0.957
    15   1 H    0.902 --    13 O    0.883
    16   6 C    3.948 --    13 O    1.012    17 N    0.980     5 N    0.978
                            18 H    0.940
    17   7 N    3.070 --    10 C    0.988    16 C    0.980     2 H    0.937
    18   1 H    0.997 --    16 C    0.940
 ---------------------------------------------------------------------------

molecular dipole:
                 x           y           z       tot (Debye)
 q only:       -0.399       1.838       0.068
   full:       -0.542       1.997       0.181       5.279

 projected vibrational frequencies (cm⁻¹)
eigval :       -0.00    -0.00    -0.00     0.00     0.00     0.00
eigval :       31.72    51.07    93.16   148.88   167.10   233.36
eigval :      242.93   315.97   340.22   390.44   419.34   470.65
eigval :      497.44   542.38   589.03   595.11   626.56   824.75
eigval :      920.73   950.06   974.20  1001.72  1036.69  1084.21
eigval :     1097.03  1127.77  1185.10  1201.49  1205.76  1232.95
eigval :     1256.02  1274.41  1319.30  1340.33  1346.95  1378.78
eigval :     1412.60  1521.47  1783.08  2804.59  2837.52  2866.43
eigval :     3366.22  3409.14  3415.68  3454.49  3506.01  3512.67

   temp. (K)  partition function   enthalpy   heat capacity  entropy
                                   cal/mol     cal/K/mol   cal/K/mol   J/K/mol
 298.15  VIB  0.252E+04             4854.547     30.121     29.707
         ROT  0.667E+06              888.752      2.981     29.630
         INT  0.168E+10             5743.300     33.102     59.338
         TR   0.152E+28             1481.254      4.968     40.597
         TOT                        7224.5537    38.0705    99.9344   418.1257

       T/K    H(0)-H(T)+PV         H(T)/Eh          T*S/Eh         G(T)/Eh
   ------------------------------------------------------------------------
    298.15    0.115131E-01    0.151401E+00    0.474821E-01    0.103918E+00
   ------------------------------------------------------------------------

         :::::::::::::::::::::::::::::::::::::::::::::::::::::
         ::                  THERMODYNAMIC                  ::
         :::::::::::::::::::::::::::::::::::::::::::::::::::::
         :: total free energy         -31.870065705858 Eh   ::
         ::.................................................::
         :: total energy              -31.973984195147 Eh   ::
         :: zero point energy           0.139887507241 Eh   ::
         :: G(RRHO) w/o ZPVE           -0.035969017953 Eh   ::
         :: G(RRHO) contrib.            0.103918489289 Eh   ::
         :::::::::::::::::::::::::::::::::::::::::::::::::::::

           -------------------------------------------------
          | TOTAL ENERGY              -31.973984195147 Eh   |
          | TOTAL ENTHALPY            -31.822583628717 Eh   |
          | TOTAL FREE ENERGY         -31.870065705858 Eh   |
          | GRADIENT NORM               0.000011771588 Eh/α |
          | HOMO-LUMO GAP               4.975127083821 eV   |
           -------------------------------------------------

 * finished run on 2025/01/10 at 14:26:10.644
normal termination of xtb
