   * xtb version 6.7.1 (edcfbbe) compiled by 'albert@albert-system' on 2024-07-22

   ID    Z sym.   atoms
    1    8 O      1, 7
    2    1 H      2, 3, 6, 9, 11, 12, 15
    3    6 C      4, 8, 13
    4    7 N      5, 10, 14

          program call               : /home/adpal/xtb-dist/bin/xtb ./results/p_{0,64}_coordinatesxTB.xyz --ohess --uhf 1 --parallel 8
          :  Hamiltonian                  GFN2-xTB          :
 * total energy  :   -26.8569066 Eh     change        0.1421085E-13 Eh
   *** GEOMETRY OPTIMIZATION CONVERGED AFTER 1 ITERATIONS ***

 final structure:
================
15
 xtb: 6.7.1 (edcfbbe)
O            1.42164803829845       -0.67294782283419        0.81782749632557
H            3.50399556632286       -1.93242687290274       -0.78326206563637
H            0.01506718086069       -3.04588044273329        2.28524731078797
C            1.10955291689140       -1.91440445924892        1.19771350203770
N            0.22993351936937       -2.07701129059237        2.07841462577869
H            1.66721384791771       -2.70798411904892        0.67541706848414
O            2.76361606319394       -1.33808762372663       -0.96553029970707
C            2.65148731669383       -0.47541219408444        0.10372912662461
H            2.54379778620899        0.55312335205005       -0.28181275956093
N            2.94253654981649        0.57552180433184        2.77146044179417
H            3.07555071195065        0.79764703914325        3.74173856454475
H            2.00630873606982        0.63050552692164        2.39811972927774
C            3.86937065761697       -0.12917028949726        2.09944753020225
N            3.80457301406840       -0.61340900727333        0.92631020075293
H            4.81084809472013       -0.28215360050471        2.61622952829199

          :  Hamiltonian                  GFN2-xTB          :
         :: gradient norm              0.000034202356 Eh/a0 ::
         :: HOMO-LUMO gap              4.298766655037 eV    ::
         :: SCC energy               -27.133377252944 Eh    ::
         :: -> dispersion             -0.010035313132 Eh    ::
         :: repulsion energy           0.276470640694 Eh    ::

    * Orbital Energies and Occupations

         #    Occupation            Energy/Eh            Energy/eV
      -------------------------------------------------------------
         1        2.0000           -0.7366821             -20.0461
       ...           ...                  ...                  ...
        11        2.0000           -0.5720735             -15.5669
        12        2.0000           -0.5514406             -15.0055
        13        2.0000           -0.5452264             -14.8364
        14        2.0000           -0.5222135             -14.2102
        15        2.0000           -0.5113857             -13.9155
        16        2.0000           -0.5061193             -13.7722
        17        2.0000           -0.4934547             -13.4276
        18        2.0000           -0.4771004             -12.9826
        19        2.0000           -0.4514128             -12.2836
        20        2.0000           -0.4331613             -11.7869
        21        2.0000           -0.4074098             -11.0862
        22        2.0000           -0.3970160             -10.8034
        23        2.0000           -0.3847221             -10.4688 (HOMO)
        24                         -0.2267453              -6.1701 (LUMO)
        25                         -0.2225763              -6.0566
        26                          0.0108098               0.2942
        27                          0.0149427               0.4066
        28                          0.0718086               1.9540
        29                          0.0800051               2.1770
        30                          0.1258478               3.4245
        31                          0.1356881               3.6923
        32                          0.1498057               4.0764
        33                          0.1755235               4.7762
        34                          0.2200517               5.9879
       ...                                ...                  ...
        39                          0.5838448              15.8872
      -------------------------------------------------------------
                  HL-Gap            0.1579767 Eh            4.2988 eV

     #   Z          covCN         q      C6AA      α(0)
     1   8 O        1.705    -0.284    18.722     5.842
     2   1 H        0.805     0.325     0.650     1.267
     3   1 H        0.860     0.154     1.377     1.838
     4   6 C        2.710     0.237    23.036     7.856
     5   7 N        1.774    -0.346    29.811     8.085
     6   1 H        0.923    -0.002     3.093     2.750
     7   8 O        1.659    -0.434    21.528     6.264
     8   6 C        3.580     0.323    16.372     5.875
     9   1 H        0.923     0.038     2.474     2.460
    10   7 N        2.635    -0.250    26.499     7.645
    11   1 H        0.860     0.182     1.200     1.716
    12   1 H        0.860     0.207     1.072     1.622
    13   6 C        2.772     0.146    24.801     8.156
    14   7 N        1.825    -0.349    29.915     8.105
    15   1 H        0.925     0.053     2.285     2.364

Wiberg/Mayer (AO) data.
largest (>0.10) Wiberg bond orders for each atom

     #   Z sym  total        # sym  WBO       # sym  WBO       # sym  WBO
 ---------------------------------------------------------------------------
     1   8 O    2.283 --     4 C    1.117     8 C    0.895     5 N    0.134
     2   1 H    0.894 --     7 O    0.871
     3   1 H    0.976 --     5 N    0.950
     4   6 C    3.931 --     5 N    1.851     1 O    1.117     6 H    0.931
     5   7 N    3.006 --     4 C    1.851     3 H    0.950     1 O    0.134
     6   1 H    1.000 --     4 C    0.931
     7   8 O    1.999 --     8 C    1.020     2 H    0.871
     8   6 C    3.926 --    14 N    1.022     7 O    1.020     9 H    0.936
                             1 O    0.895
     9   1 H    0.999 --     8 C    0.936
    10   7 N    3.393 --    13 C    1.283    11 H    0.950    12 H    0.927
                            14 N    0.205
    11   1 H    0.967 --    10 N    0.950
    12   1 H    0.957 --    10 N    0.927
    13   6 C    3.969 --    14 N    1.692    10 N    1.283    15 H    0.950
    14   7 N    3.025 --    13 C    1.692     8 C    1.022    10 N    0.205
    15   1 H    0.997 --    13 C    0.950
 ---------------------------------------------------------------------------

molecular dipole:
                 x           y           z       tot (Debye)
 q only:        0.766       0.241       0.905
   full:        0.836       0.007       1.034       3.381

 projected vibrational frequencies (cm⁻¹)
eigval :       -0.00    -0.00    -0.00     0.00     0.00     0.00
eigval :       49.98    75.02   113.91   203.61   224.65   273.59
eigval :      309.40   368.11   407.89   456.56   510.68   581.69
eigval :      677.45   748.17   784.47   877.38   932.50   961.18
eigval :      973.83  1043.11  1062.92  1130.64  1198.85  1234.46
eigval :     1258.74  1300.01  1321.59  1331.80  1366.83  1462.50
eigval :     1716.58  1736.87  2813.60  2851.64  3025.26  3396.53
eigval :     3440.49  3496.64  3528.99

   temp. (K)  partition function   enthalpy   heat capacity  entropy
                                   cal/mol     cal/K/mol   cal/K/mol   J/K/mol
 298.15  VIB   334.                 3904.549     25.096     23.844
         ROT  0.352E+06              888.752      2.981     28.359
         INT  0.117E+09             4793.301     28.077     52.203
         TR   0.123E+28             1481.254      4.968     40.170
         TOT                        6274.5548    33.0447    92.3731   386.4892

       T/K    H(0)-H(T)+PV         H(T)/Eh          T*S/Eh         G(T)/Eh
   ------------------------------------------------------------------------
    298.15    0.999914E-02    0.122195E+00    0.438895E-01    0.783052E-01
   ------------------------------------------------------------------------

         :::::::::::::::::::::::::::::::::::::::::::::::::::::
         ::                  THERMODYNAMIC                  ::
         :::::::::::::::::::::::::::::::::::::::::::::::::::::
         :: total free energy         -26.778601449551 Eh   ::
         ::.................................................::
         :: total energy              -26.856906612250 Eh   ::
         :: zero point energy           0.112195478490 Eh   ::
         :: G(RRHO) w/o ZPVE           -0.033890315791 Eh   ::
         :: G(RRHO) contrib.            0.078305162699 Eh   ::
         :::::::::::::::::::::::::::::::::::::::::::::::::::::

           -------------------------------------------------
          | TOTAL ENERGY              -26.856906612250 Eh   |
          | TOTAL ENTHALPY            -26.734711994179 Eh   |
          | TOTAL FREE ENERGY         -26.778601449551 Eh   |
          | GRADIENT NORM               0.000034202791 Eh/α |
          | HOMO-LUMO GAP               4.298766003323 eV   |
           -------------------------------------------------

 * finished run on 2025/01/10 at 14:26:52.791
normal termination of xtb
