   * xtb version 6.7.1 (edcfbbe) compiled by 'albert@albert-system' on 2024-07-22

   ID    Z sym.   atoms
    1    6 C      1, 10
    2    7 N      2, 11
    3    1 H      3, 5, 6, 8, 9, 12
    4    8 O      4, 7

          program call               : /home/adpal/xtb-dist/bin/xtb ./results/p_{0,26}_coordinatesxTB.xyz --ohess --uhf 1 --parallel 8
          :  Hamiltonian                  GFN2-xTB          :
 * total energy  :   -21.2931264 Eh     change        0.1776357E-13 Eh
   *** GEOMETRY OPTIMIZATION CONVERGED AFTER 1 ITERATIONS ***

 final structure:
================
12
 xtb: 6.7.1 (edcfbbe)
C            0.35551782624921       -0.56477695933012        0.99937134718061
N           -0.66691977649042        0.15763532055811        1.15021374420547
H            0.43298926213748       -1.64262427370529        1.20210916596253
O            2.87906211075672       -1.89875713552488        0.87322704559211
H           -1.48334710701018       -0.33000151597755        1.50215296541519
H            3.12208753995129       -1.58378711670336        1.75011569988047
O            2.30874871337102       -1.30893457989844       -1.21601325543617
H            1.46406521189669        0.93753108147175        0.28294845396076
H            1.73366034832788       -2.07985527654906       -1.12236461271995
C            2.60243023889718       -0.82085766015812        0.03826605241416
N            1.54141536736840       -0.01504577204637        0.60784767205551
H            3.47570026454478       -0.16022611213674       -0.08793427851069

          :  Hamiltonian                  GFN2-xTB          :
         :: gradient norm              0.000044290473 Eh/a0 ::
         :: HOMO-LUMO gap              4.447458351938 eV    ::
         :: SCC energy               -21.488604798474 Eh    ::
         :: -> dispersion             -0.006234050324 Eh    ::
         :: repulsion energy           0.195478380720 Eh    ::

    * Orbital Energies and Occupations

         #    Occupation            Energy/Eh            Energy/eV
      -------------------------------------------------------------
         1        2.0000           -0.7356977             -20.0194
       ...           ...                  ...                  ...
         6        2.0000           -0.6253304             -17.0161
         7        2.0000           -0.5969116             -16.2428
         8        2.0000           -0.5858883             -15.9428
         9        2.0000           -0.5770929             -15.7035
        10        2.0000           -0.5311135             -14.4523
        11        2.0000           -0.5226011             -14.2207
        12        2.0000           -0.5029308             -13.6854
        13        2.0000           -0.4970548             -13.5256
        14        2.0000           -0.4923937             -13.3987
        15        2.0000           -0.4722268             -12.8499
        16        2.0000           -0.4489356             -12.2162
        17        2.0000           -0.3990099             -10.8576
        18        2.0000           -0.3747640             -10.1978 (HOMO)
        19                         -0.2113229              -5.7504 (LUMO)
        20                          0.0082735               0.2251
        21                          0.0435761               1.1858
        22                          0.0675809               1.8390
        23                          0.1000952               2.7237
        24                          0.1244463               3.3864
        25                          0.1559458               4.2435
        26                          0.1786947               4.8625
        27                          0.2002063               5.4479
        28                          0.2551523               6.9430
        29                          0.3484142               9.4808
        30                          0.5838446              15.8872
      -------------------------------------------------------------
                  HL-Gap            0.1634411 Eh            4.4475 eV

     #   Z          covCN         q      C6AA      α(0)
     1   6 C        2.751     0.152    24.694     8.137
     2   7 N        1.785    -0.367    30.397     8.166
     3   1 H        0.923     0.004     2.996     2.707
     4   8 O        1.657    -0.442    21.689     6.287
     5   1 H        0.860     0.140     1.468     1.898
     6   1 H        0.805     0.312     0.687     1.302
     7   8 O        1.657    -0.428    21.409     6.246
     8   1 H        0.860     0.190     1.157     1.685
     9   1 H        0.805     0.322     0.658     1.275
    10   6 C        3.542     0.316    16.737     5.993
    11   7 N        2.693    -0.232    26.082     7.585
    12   1 H        0.923     0.035     2.522     2.483

Wiberg/Mayer (AO) data.
largest (>0.10) Wiberg bond orders for each atom

     #   Z sym  total        # sym  WBO       # sym  WBO       # sym  WBO
 ---------------------------------------------------------------------------
     1   6 C    3.965 --     2 N    1.813    11 N    1.192     3 H    0.935
     2   7 N    2.993 --     1 C    1.813     5 H    0.954    11 N    0.158
     3   1 H    1.000 --     1 C    0.935
     4   8 O    1.983 --    10 C    0.992     6 H    0.885
     5   1 H    0.980 --     2 N    0.954
     6   1 H    0.903 --     4 O    0.885
     7   8 O    2.002 --    10 C    1.016     9 H    0.875
     8   1 H    0.964 --    11 N    0.933
     9   1 H    0.896 --     7 O    0.875
    10   6 C    3.940 --     7 O    1.016     4 O    0.992    11 N    0.964
                            12 H    0.947
    11   7 N    3.352 --     1 C    1.192    10 C    0.964     8 H    0.933
                             2 N    0.158
    12   1 H    0.999 --    10 C    0.947
 ---------------------------------------------------------------------------

molecular dipole:
                 x           y           z       tot (Debye)
 q only:        0.423      -0.078       0.349
   full:        0.381      -0.357       0.558       1.942

 projected vibrational frequencies (cm⁻¹)
eigval :       -0.00    -0.00     0.00     0.00     0.00     0.00
eigval :       95.94   123.96   205.67   283.27   318.59   418.99
eigval :      460.01   516.59   631.18   733.21   772.97   926.82
eigval :      983.38  1029.58  1076.24  1112.75  1156.70  1235.97
eigval :     1270.57  1291.61  1321.58  1348.98  1408.56  1725.42
eigval :     2834.27  2877.52  3392.48  3450.35  3512.07  3560.18

   temp. (K)  partition function   enthalpy   heat capacity  entropy
                                   cal/mol     cal/K/mol   cal/K/mol   J/K/mol
 298.15  VIB   26.8                 2617.523     18.282     15.261
         ROT  0.149E+06              888.752      2.981     26.653
         INT  0.399E+07             3506.275     21.263     41.913
         TR   0.827E+27             1481.254      4.968     39.389
         TOT                        4987.5291    26.2314    81.3021   340.1681

       T/K    H(0)-H(T)+PV         H(T)/Eh          T*S/Eh         G(T)/Eh
   ------------------------------------------------------------------------
    298.15    0.794813E-02    0.992467E-01    0.386293E-01    0.606174E-01
   ------------------------------------------------------------------------

         :::::::::::::::::::::::::::::::::::::::::::::::::::::
         ::                  THERMODYNAMIC                  ::
         :::::::::::::::::::::::::::::::::::::::::::::::::::::
         :: total free energy         -21.232509013541 Eh   ::
         ::.................................................::
         :: total energy              -21.293126417755 Eh   ::
         :: zero point energy           0.091298531520 Eh   ::
         :: G(RRHO) w/o ZPVE           -0.030681127306 Eh   ::
         :: G(RRHO) contrib.            0.060617404214 Eh   ::
         :::::::::::::::::::::::::::::::::::::::::::::::::::::

           -------------------------------------------------
          | TOTAL ENERGY              -21.293126417755 Eh   |
          | TOTAL ENTHALPY            -21.193879752729 Eh   |
          | TOTAL FREE ENERGY         -21.232509013541 Eh   |
          | GRADIENT NORM               0.000044334864 Eh/α |
          | HOMO-LUMO GAP               4.447457567442 eV   |
           -------------------------------------------------

 * finished run on 2025/01/10 at 14:24:43.747
normal termination of xtb
