   * xtb version 6.7.1 (edcfbbe) compiled by 'albert@albert-system' on 2024-07-22

   ID    Z sym.   atoms
    1    8 O      1
    2    1 H      2, 3, 6
    3    6 C      4
    4    7 N      5

          program call               : /home/adpal/xtb-dist/bin/xtb ./results/p_{0,1}_coordinatesxTB.xyz --ohess --uhf 1 --parallel 8
          :  Hamiltonian                  GFN2-xTB          :
 * total energy  :   -10.6299420 Eh     change        0.1598721E-13 Eh
   *** GEOMETRY OPTIMIZATION CONVERGED AFTER 1 ITERATIONS ***

 final structure:
================
6
 xtb: 6.7.1 (edcfbbe)
O            1.11281793911170       -0.05540949011724        0.02608545378413
H            4.02863381386862       -1.19437072771548       -0.22729998930992
H            0.75021234782106       -0.93402586662245       -0.16938584792333
C            2.43680666448955       -0.13552833758958        0.00826303830530
N            3.01679589294310       -1.22160357215608       -0.23336018617527
H            2.88694334176597        0.83990799420084        0.22526753131909

          :  Hamiltonian                  GFN2-xTB          :
         :: gradient norm              0.000007730599 Eh/a0 ::
         :: HOMO-LUMO gap              4.635733322008 eV    ::
         :: SCC energy               -10.740951536755 Eh    ::
         :: -> dispersion             -0.001646090170 Eh    ::
         :: repulsion energy           0.111009525218 Eh    ::

    * Orbital Energies and Occupations

         #    Occupation            Energy/Eh            Energy/eV
      -------------------------------------------------------------
         1        2.0000           -0.7317841             -19.9129
         2        2.0000           -0.6611905             -17.9919
         3        2.0000           -0.6326201             -17.2145
         4        2.0000           -0.5747364             -15.6394
         5        2.0000           -0.5488184             -14.9341
         6        2.0000           -0.5297868             -14.4162
         7        2.0000           -0.4960076             -13.4971
         8        2.0000           -0.4357311             -11.8568
         9        2.0000           -0.3944657             -10.7340 (HOMO)
        10                         -0.2241056              -6.0982 (LUMO)
        11                          0.0778622               2.1187
        12                          0.1085704               2.9544
        13                          0.1765554               4.8043
        14                          0.3066279               8.3438
        15                          0.5850651              15.9204
      -------------------------------------------------------------
                  HL-Gap            0.1703600 Eh            4.6357 eV

     #   Z          covCN         q      C6AA      α(0)
     1   8 O        1.661    -0.355    19.993     6.036
     2   1 H        0.860     0.149     1.410     1.860
     3   1 H        0.805     0.329     0.639     1.256
     4   6 C        2.689     0.225    23.254     7.892
     5   7 N        1.773    -0.367    30.393     8.164
     6   1 H        0.924     0.019     2.752     2.594

Wiberg/Mayer (AO) data.
largest (>0.10) Wiberg bond orders for each atom

     #   Z sym  total        # sym  WBO       # sym  WBO       # sym  WBO
 ---------------------------------------------------------------------------
     1   8 O    2.206 --     4 C    1.155     3 H    0.866     5 N    0.161
     2   1 H    0.978 --     5 N    0.952
     3   1 H    0.892 --     1 O    0.866
     4   6 C    3.937 --     5 N    1.845     1 O    1.155     6 H    0.933
     5   7 N    3.007 --     4 C    1.845     2 H    0.952     1 O    0.161
     6   1 H    1.000 --     4 C    0.933
 ---------------------------------------------------------------------------

molecular dipole:
                 x           y           z       tot (Debye)
 q only:       -0.101      -0.060      -0.013
   full:        0.103       0.137       0.031       0.443

 projected vibrational frequencies (cm⁻¹)
eigval :       -0.00    -0.00    -0.00     0.00     0.00     0.00
eigval :      536.93   670.63   800.60   981.88  1076.36  1134.47
eigval :     1281.79  1347.02  1742.85  2883.89  3422.33  3443.82

   temp. (K)  partition function   enthalpy   heat capacity  entropy
                                   cal/mol     cal/K/mol   cal/K/mol   J/K/mol
 298.15  VIB   1.18                  322.020      3.970      1.401
         ROT  0.944E+04              888.752      2.981     21.169
         INT  0.111E+05             1210.773      6.951     22.570
         TR   0.292E+27             1481.254      4.968     37.324
         TOT                        2692.0267    11.9193    59.8939   250.5960

       T/K    H(0)-H(T)+PV         H(T)/Eh          T*S/Eh         G(T)/Eh
   ------------------------------------------------------------------------
    298.15    0.429002E-02    0.483101E-01    0.284575E-01    0.198526E-01
   ------------------------------------------------------------------------

         :::::::::::::::::::::::::::::::::::::::::::::::::::::
         ::                  THERMODYNAMIC                  ::
         :::::::::::::::::::::::::::::::::::::::::::::::::::::
         :: total free energy         -10.610089398960 Eh   ::
         ::.................................................::
         :: total energy              -10.629942011536 Eh   ::
         :: zero point energy           0.044020106638 Eh   ::
         :: G(RRHO) w/o ZPVE           -0.024167494062 Eh   ::
         :: G(RRHO) contrib.            0.019852612576 Eh   ::
         :::::::::::::::::::::::::::::::::::::::::::::::::::::

           -------------------------------------------------
          | TOTAL ENERGY              -10.629942011536 Eh   |
          | TOTAL ENTHALPY            -10.581631887347 Eh   |
          | TOTAL FREE ENERGY         -10.610089398960 Eh   |
          | GRADIENT NORM               0.000007713328 Eh/α |
          | HOMO-LUMO GAP               4.635732781551 eV   |
           -------------------------------------------------

 * finished run on 2025/01/10 at 14:23:59.753
normal termination of xtb
