   * xtb version 6.7.1 (edcfbbe) compiled by 'albert@albert-system' on 2024-07-22

   ID    Z sym.   atoms
    1    6 C      1, 7, 13
    2    7 N      2, 8, 14
    3    1 H      3, 5, 6, 9, 11, 12, 15
    4    8 O      4, 10

          program call               : /home/adpal/xtb-dist/bin/xtb ./results/p_{0,20}_coordinatesxTB.xyz --ohess --uhf 1 --parallel 8
          :  Hamiltonian                  GFN2-xTB          :
 * total energy  :   -26.8345111 Eh     change       -0.3552714E-14 Eh
   *** GEOMETRY OPTIMIZATION CONVERGED AFTER 1 ITERATIONS ***

 final structure:
================
15
 xtb: 6.7.1 (edcfbbe)
C            3.99876031590052       -0.63459572526997        1.19485234312217
N            3.35279343065371       -1.24836989456679        2.06124731415149
H            4.96235843926433       -1.01633201483908        0.86753687423062
O            3.58855351099427        0.51972006623075        0.59826437045733
H            4.24958662898251        2.66094190421495       -1.62810376766181
H            2.46742920985588       -0.81870232494263        2.31839482619968
C            4.45266695649418        1.10763219876437       -0.33610797576541
N            3.78052018782051        2.27394115036862       -0.81995681653989
H            4.72173420441294        0.35974278200188       -1.11437967806953
O            5.68882895931230        1.44211173531319        0.22742724126666
H            6.66429244843572        3.36498439153760        2.50463220282667
H            2.81407028363574        2.07132770545473       -1.03626208141795
C            5.67069963310851        2.36277200327187        1.21551963481605
N            6.74764099120620        2.66923715760969        1.77211982836231
H            4.66737479992268        2.75837886485090        1.42943568402156

          :  Hamiltonian                  GFN2-xTB          :
         :: gradient norm              0.000036916018 Eh/a0 ::
         :: HOMO-LUMO gap              4.122132480095 eV    ::
         :: SCC energy               -27.105591422611 Eh    ::
         :: -> dispersion             -0.009425119863 Eh    ::
         :: repulsion energy           0.271080311593 Eh    ::

    * Orbital Energies and Occupations

         #    Occupation            Energy/Eh            Energy/eV
      -------------------------------------------------------------
         1        2.0000           -0.7634751             -20.7752
       ...           ...                  ...                  ...
        11        2.0000           -0.5717852             -15.5591
        12        2.0000           -0.5535258             -15.0622
        13        2.0000           -0.5406145             -14.7109
        14        2.0000           -0.5390234             -14.6676
        15        2.0000           -0.5363303             -14.5943
        16        2.0000           -0.5123559             -13.9419
        17        2.0000           -0.5063983             -13.7798
        18        2.0000           -0.4862890             -13.2326
        19        2.0000           -0.4516124             -12.2890
        20        2.0000           -0.4435129             -12.0686
        21        2.0000           -0.4242194             -11.5436
        22        2.0000           -0.4090811             -11.1317
        23        2.0000           -0.3902785             -10.6200 (HOMO)
        24                         -0.2387929              -6.4979 (LUMO)
        25                         -0.2330493              -6.3416
        26                         -0.0083114              -0.2262
        27                          0.0069090               0.1880
        28                          0.0436293               1.1872
        29                          0.0722142               1.9650
        30                          0.0972766               2.6470
        31                          0.1236173               3.3638
        32                          0.1321735               3.5966
        33                          0.1394275               3.7940
        34                          0.1843977               5.0177
       ...                                ...                  ...
        39                          0.5846567              15.9093
      -------------------------------------------------------------
                  HL-Gap            0.1514856 Eh            4.1221 eV

     #   Z          covCN         q      C6AA      α(0)
     1   6 C        2.715     0.222    23.325     7.906
     2   7 N        1.771    -0.316    29.006     7.975
     3   1 H        0.925     0.049     2.335     2.390
     4   8 O        1.707    -0.294    18.886     5.867
     5   1 H        0.860     0.174     1.247     1.750
     6   1 H        0.860     0.172     1.263     1.760
     7   6 C        3.593     0.329    16.221     5.833
     8   7 N        2.631    -0.356    29.175     8.022
     9   1 H        0.921     0.014     2.821     2.627
    10   8 O        1.708    -0.264    18.376     5.788
    11   1 H        0.860     0.164     1.312     1.794
    12   1 H        0.860     0.180     1.213     1.725
    13   6 C        2.723     0.231    23.159     7.878
    14   7 N        1.774    -0.320    29.113     7.990
    15   1 H        0.923     0.016     2.792     2.613

Wiberg/Mayer (AO) data.
largest (>0.10) Wiberg bond orders for each atom

     #   Z sym  total        # sym  WBO       # sym  WBO       # sym  WBO
 ---------------------------------------------------------------------------
     1   6 C    3.925 --     2 N    1.913     4 O    1.042     3 H    0.945
     2   7 N    3.039 --     1 C    1.913     6 H    0.937     4 O    0.153
     3   1 H    0.998 --     1 C    0.945
     4   8 O    2.252 --     1 C    1.042     7 C    0.957     2 N    0.153
     5   1 H    0.968 --     8 N    0.954
     6   1 H    0.970 --     2 N    0.937
     7   6 C    3.929 --     8 N    1.026    10 O    0.963     4 O    0.957
                             9 H    0.936
     8   7 N    3.024 --     7 C    1.026     5 H    0.954    12 H    0.950
     9   1 H    1.000 --     7 C    0.936
    10   8 O    2.278 --    13 C    1.075     7 C    0.963    14 N    0.123
    11   1 H    0.973 --    14 N    0.946
    12   1 H    0.967 --     8 N    0.950
    13   6 C    3.923 --    14 N    1.886    10 O    1.075    15 H    0.932
    14   7 N    3.022 --    13 C    1.886    11 H    0.946    10 O    0.123
    15   1 H    1.000 --    13 C    0.932
 ---------------------------------------------------------------------------

molecular dipole:
                 x           y           z       tot (Debye)
 q only:       -0.599       0.402      -0.645
   full:       -1.088       0.685      -1.130       4.350

 projected vibrational frequencies (cm⁻¹)
eigval :       -0.00    -0.00    -0.00    -0.00     0.00     0.00
eigval :       48.71    89.52   113.96   145.09   176.29   201.06
eigval :      219.98   379.48   423.52   505.53   552.88   706.24
eigval :      780.50   789.27   869.41   947.39   952.78   969.63
eigval :     1051.73  1059.24  1088.27  1140.81  1146.07  1208.49
eigval :     1225.13  1298.79  1324.02  1333.77  1354.40  1498.94
eigval :     1737.58  1754.08  2755.03  2840.87  3004.51  3361.46
eigval :     3395.99  3434.86  3474.57

   temp. (K)  partition function   enthalpy   heat capacity  entropy
                                   cal/mol     cal/K/mol   cal/K/mol   J/K/mol
 298.15  VIB   521.                 3978.608     24.428     25.008
         ROT  0.402E+06              888.752      2.981     28.623
         INT  0.209E+09             4867.360     27.409     53.631
         TR   0.123E+28             1481.254      4.968     40.170
         TOT                        6348.6139    32.3768    93.8019   392.4670

       T/K    H(0)-H(T)+PV         H(T)/Eh          T*S/Eh         G(T)/Eh
   ------------------------------------------------------------------------
    298.15    0.101172E-01    0.122567E+00    0.445683E-01    0.779989E-01
   ------------------------------------------------------------------------

         :::::::::::::::::::::::::::::::::::::::::::::::::::::
         ::                  THERMODYNAMIC                  ::
         :::::::::::::::::::::::::::::::::::::::::::::::::::::
         :: total free energy         -26.756512206027 Eh   ::
         ::.................................................::
         :: total energy              -26.834511111018 Eh   ::
         :: zero point energy           0.112450042504 Eh   ::
         :: G(RRHO) w/o ZPVE           -0.034451137512 Eh   ::
         :: G(RRHO) contrib.            0.077998904991 Eh   ::
         :::::::::::::::::::::::::::::::::::::::::::::::::::::

           -------------------------------------------------
          | TOTAL ENERGY              -26.834511111018 Eh   |
          | TOTAL ENTHALPY            -26.711943908326 Eh   |
          | TOTAL FREE ENERGY         -26.756512206027 Eh   |
          | GRADIENT NORM               0.000036942807 Eh/α |
          | HOMO-LUMO GAP               4.122131656526 eV   |
           -------------------------------------------------

 * finished run on 2025/01/10 at 14:24:24.860
normal termination of xtb
