   * xtb version 6.7.1 (edcfbbe) compiled by 'albert@albert-system' on 2024-07-22

   ID    Z sym.   atoms
    1    8 O      1, 2, 6
    2    1 H      3, 5, 8, 10, 11, 14
    3    6 C      4, 7, 12
    4    7 N      9, 13

          program call               : /home/adpal/xtb-dist/bin/xtb ./results/p_{0,63}_coordinatesxTB.xyz --ohess --uhf 1 --parallel 8
          :  Hamiltonian                  GFN2-xTB          :
 * total energy  :   -27.5210806 Eh     change        0.3552714E-13 Eh
   *** GEOMETRY OPTIMIZATION CONVERGED AFTER 1 ITERATIONS ***

 final structure:
================
14
 xtb: 6.7.1 (edcfbbe)
O            2.53610000474645        0.31102292272036        1.84063349932463
O            0.41521152316435        0.14038502331277        1.11293392075159
H            4.85889734725064       -0.79658960639593        1.44417741087975
C            1.25300784191166        0.53784304098046        1.87926256840937
H            1.01989890612865        1.18195478658485        2.74395095532256
O            4.05508544704553       -1.33458204268789        1.43556898495439
C            3.07489563930437       -0.60941914316769        0.82554835317170
H            2.26376938484634       -1.30899225228646        0.56223594142868
N            1.59331404579320        0.45237767062140       -1.44068155976331
H            1.17506913676125        0.88236588365350       -2.24583581891673
H            0.97254701809187        0.13225349701554       -0.70537221000689
C            2.91470314083803        0.55015455841920       -1.23184768114181
N            3.61647930854187        0.12343188696130       -0.26024522847030
H            3.47525125557511        1.04506377426809       -2.01853913594370

          :  Hamiltonian                  GFN2-xTB          :
         :: gradient norm              0.000030758755 Eh/a0 ::
         :: HOMO-LUMO gap              3.753437639622 eV    ::
         :: SCC energy               -27.774259028817 Eh    ::
         :: -> dispersion             -0.009340593067 Eh    ::
         :: repulsion energy           0.253178418081 Eh    ::

    * Orbital Energies and Occupations

         #    Occupation            Energy/Eh            Energy/eV
      -------------------------------------------------------------
         1        2.0000           -0.7643267             -20.7984
       ...           ...                  ...                  ...
        11        2.0000           -0.5868778             -15.9698
        12        2.0000           -0.5741952             -15.6246
        13        2.0000           -0.5683050             -15.4644
        14        2.0000           -0.5445121             -14.8169
        15        2.0000           -0.5283883             -14.3782
        16        2.0000           -0.5179264             -14.0935
        17        2.0000           -0.5009684             -13.6320
        18        2.0000           -0.4920054             -13.3881
        19        2.0000           -0.4726149             -12.8605
        20        2.0000           -0.4631693             -12.6035
        21        2.0000           -0.4367686             -11.8851
        22        2.0000           -0.4064689             -11.0606
        23        2.0000           -0.3930117             -10.6944 (HOMO)
        24                         -0.2550754              -6.9410 (LUMO)
        25                         -0.2237305              -6.0880
        26                         -0.0130225              -0.3544
        27                          0.0159640               0.4344
        28                          0.0857484               2.3333
        29                          0.0939388               2.5562
        30                          0.1309614               3.5636
        31                          0.1539248               4.1885
        32                          0.1603658               4.3638
        33                          0.2318606               6.3092
        34                          0.2644348               7.1956
       ...                                ...                  ...
        38                          0.6282625              17.0959
      -------------------------------------------------------------
                  HL-Gap            0.1379363 Eh            3.7534 eV

     #   Z          covCN         q      C6AA      α(0)
     1   8 O        1.696    -0.267    18.432     5.796
     2   8 O        0.856    -0.402    21.713     6.247
     3   1 H        0.805     0.331     0.635     1.252
     4   6 C        2.650     0.346    21.120     7.518
     5   1 H        0.923     0.040     2.443     2.444
     6   8 O        1.659    -0.411    21.056     6.194
     7   6 C        3.568     0.323    16.443     5.902
     8   1 H        0.923     0.035     2.518     2.482
     9   7 N        2.635    -0.256    26.647     7.667
    10   1 H        0.860     0.181     1.209     1.723
    11   1 H        0.860     0.215     1.031     1.590
    12   6 C        2.771     0.146    24.816     8.159
    13   7 N        1.825    -0.337    29.604     8.062
    14   1 H        0.925     0.055     2.262     2.352

Wiberg/Mayer (AO) data.
largest (>0.10) Wiberg bond orders for each atom

     #   Z sym  total        # sym  WBO       # sym  WBO       # sym  WBO
 ---------------------------------------------------------------------------
     1   8 O    2.353 --     4 C    1.228     7 C    0.835     2 O    0.197
     2   8 O    2.054 --     4 C    1.740     1 O    0.197
     3   1 H    0.891 --     6 O    0.869
     4   6 C    3.916 --     2 O    1.740     1 O    1.228     5 H    0.913
     5   1 H    0.998 --     4 C    0.913
     6   8 O    2.027 --     7 C    1.048     3 H    0.869
     7   6 C    3.913 --     6 O    1.048    13 N    1.027     8 H    0.939
                             1 O    0.835
     8   1 H    0.999 --     7 C    0.939
     9   7 N    3.403 --    12 C    1.298    10 H    0.951    11 H    0.901
                            13 N    0.207
    10   1 H    0.967 --     9 N    0.951
    11   1 H    0.954 --     9 N    0.901
    12   6 C    3.968 --    13 N    1.678     9 N    1.298    14 H    0.948
    13   7 N    3.018 --    12 C    1.678     7 C    1.027     9 N    0.207
    14   1 H    0.997 --    12 C    0.948
 ---------------------------------------------------------------------------

molecular dipole:
                 x           y           z       tot (Debye)
 q only:        0.104       0.576      -0.744
   full:       -0.253       0.837      -0.725       2.887

 projected vibrational frequencies (cm⁻¹)
eigval :       -0.00    -0.00    -0.00     0.00     0.00     0.00
eigval :       71.97   141.48   195.53   213.21   259.68   299.97
eigval :      341.48   429.59   476.60   488.46   555.96   621.26
eigval :      667.51   719.79   842.74   932.75   936.35   991.77
eigval :     1052.95  1146.25  1206.85  1226.13  1256.90  1274.39
eigval :     1325.11  1347.66  1355.65  1474.12  1711.10  1768.54
eigval :     2829.92  2846.37  3018.14  3349.20  3497.76  3523.79

   temp. (K)  partition function   enthalpy   heat capacity  entropy
                                   cal/mol     cal/K/mol   cal/K/mol   J/K/mol
 298.15  VIB   73.0                 3443.448     23.831     19.901
         ROT  0.332E+06              888.752      2.981     28.245
         INT  0.243E+08             4332.200     26.812     48.146
         TR   0.124E+28             1481.254      4.968     40.195
         TOT                        5813.4542    31.7803    88.3413   369.6201

       T/K    H(0)-H(T)+PV         H(T)/Eh          T*S/Eh         G(T)/Eh
   ------------------------------------------------------------------------
    298.15    0.926433E-02    0.110408E+00    0.419738E-01    0.684342E-01
   ------------------------------------------------------------------------

         :::::::::::::::::::::::::::::::::::::::::::::::::::::
         ::                  THERMODYNAMIC                  ::
         :::::::::::::::::::::::::::::::::::::::::::::::::::::
         :: total free energy         -27.452646385677 Eh   ::
         ::.................................................::
         :: total energy              -27.521080610736 Eh   ::
         :: zero point energy           0.101143707616 Eh   ::
         :: G(RRHO) w/o ZPVE           -0.032709482557 Eh   ::
         :: G(RRHO) contrib.            0.068434225059 Eh   ::
         :::::::::::::::::::::::::::::::::::::::::::::::::::::

           -------------------------------------------------
          | TOTAL ENERGY              -27.521080610736 Eh   |
          | TOTAL ENTHALPY            -27.410672574177 Eh   |
          | TOTAL FREE ENERGY         -27.452646385677 Eh   |
          | GRADIENT NORM               0.000030759902 Eh/α |
          | HOMO-LUMO GAP               3.753437548650 eV   |
           -------------------------------------------------

 * finished run on 2025/01/10 at 14:26:49.684
normal termination of xtb
