   * xtb version 6.7.1 (edcfbbe) compiled by 'albert@albert-system' on 2024-07-22

   ID    Z sym.   atoms
    1    6 C      1, 7
    2    7 N      2, 8
    3    1 H      3, 5, 6, 9
    4    8 O      4

          program call               : /home/adpal/xtb-dist/bin/xtb ./results/p_{0,27}_coordinatesxTB.xyz --ohess --uhf 1 --parallel 8
          :  Hamiltonian                  GFN2-xTB          :
 * total energy  :   -16.1382094 Eh     change       -0.2131628E-13 Eh
   *** GEOMETRY OPTIMIZATION CONVERGED AFTER 1 ITERATIONS ***

 final structure:
================
9
 xtb: 6.7.1 (edcfbbe)
C            0.82153349071975        0.62297427605304       -0.73922123718488
N           -0.05111724130671        0.56365843164844        0.16572507042146
H            0.66815476485756        0.75601355982945       -1.81621757405746
O            4.30875105711679        0.43427235959548       -0.68385226997874
H           -1.01090543974864        0.65026843055299       -0.14896724137358
H            2.33845062378376        0.38932594515645        0.59134798846318
C            3.12138104048187        0.56964815409521       -1.31572316303140
N            2.14485302578825        0.51509129834035       -0.40554085886995
H            5.02152867830736        0.47233754472858       -1.33310071438860

          :  Hamiltonian                  GFN2-xTB          :
         :: gradient norm              0.000045843618 Eh/a0 ::
         :: HOMO-LUMO gap              2.875939838548 eV    ::
         :: SCC energy               -16.309488119966 Eh    ::
         :: -> dispersion             -0.003974315148 Eh    ::
         :: repulsion energy           0.171278709371 Eh    ::

    * Orbital Energies and Occupations

         #    Occupation            Energy/Eh            Energy/eV
      -------------------------------------------------------------
         1        2.0000           -0.7161126             -19.4864
         2        2.0000           -0.6735221             -18.3275
         3        2.0000           -0.6566540             -17.8685
         4        2.0000           -0.6193537             -16.8535
         5        2.0000           -0.5913940             -16.0927
         6        2.0000           -0.5596366             -15.2285
         7        2.0000           -0.5544293             -15.0868
         8        2.0000           -0.5376317             -14.6297
         9        2.0000           -0.5171470             -14.0723
        10        2.0000           -0.4987716             -13.5723
        11        2.0000           -0.4980196             -13.5518
        12        2.0000           -0.4248788             -11.5615
        13        2.0000           -0.3892980             -10.5933
        14        2.0000           -0.3694714             -10.0538 (HOMO)
        15                         -0.2637825              -7.1779 (LUMO)
        16                         -0.1901547              -5.1744
        17                          0.0368046               1.0015
        18                          0.0877090               2.3867
        19                          0.1111091               3.0234
        20                          0.1622084               4.4139
        21                          0.2507921               6.8244
        22                          0.3036689               8.2633
        23                          0.3867201              10.5232
        24                          0.6011316              16.3576
      -------------------------------------------------------------
                  HL-Gap            0.1056888 Eh            2.8759 eV

     #   Z          covCN         q      C6AA      α(0)
     1   6 C        2.768     0.144    24.857     8.165
     2   7 N        1.788    -0.336    29.546     8.051
     3   1 H        0.924     0.027     2.635     2.538
     4   8 O        1.667    -0.351    19.914     6.024
     5   1 H        0.860     0.150     1.404     1.856
     6   1 H        0.859     0.175     1.242     1.745
     7   6 C        1.788    -0.047    32.487     9.212
     8   7 N        2.705    -0.065    22.501     7.045
     9   1 H        0.805     0.303     0.711     1.324

Wiberg/Mayer (AO) data.
largest (>0.10) Wiberg bond orders for each atom

     #   Z sym  total        # sym  WBO       # sym  WBO       # sym  WBO
 ---------------------------------------------------------------------------
     1   6 C    3.962 --     2 N    1.850     8 N    1.153     3 H    0.935
     2   7 N    3.017 --     1 C    1.850     5 H    0.951
     3   1 H    0.999 --     1 C    0.935
     4   8 O    2.252 --     7 C    1.253     9 H    0.892
     5   1 H    0.977 --     2 N    0.951
     6   1 H    0.969 --     8 N    0.911
     7   6 C    2.738 --     8 N    1.379     4 O    1.253
     8   7 N    3.619 --     7 C    1.379     1 C    1.153     6 H    0.911
     9   1 H    0.908 --     4 O    0.892
 ---------------------------------------------------------------------------

molecular dipole:
                 x           y           z       tot (Debye)
 q only:        0.262       0.031      -0.388
   full:        0.362       0.023      -0.366       1.310

 projected vibrational frequencies (cm⁻¹)
eigval :       -0.00    -0.00     0.00     0.00     0.00     0.00
eigval :      146.84   213.05   288.38   521.18   537.51   625.46
eigval :      791.91   839.96   991.99  1052.21  1126.32  1191.79
eigval :     1254.74  1303.36  1356.32  1439.11  1717.46  2883.33
eigval :     3224.19  3398.82  3522.42

   temp. (K)  partition function   enthalpy   heat capacity  entropy
                                   cal/mol     cal/K/mol   cal/K/mol   J/K/mol
 298.15  VIB   5.40                 1553.385     11.754      8.561
         ROT  0.567E+05              888.752      2.981     24.733
         INT  0.307E+06             2442.137     14.734     33.294
         TR   0.592E+27             1481.254      4.968     38.724
         TOT                        3923.3910    19.7026    72.0180   301.3235

       T/K    H(0)-H(T)+PV         H(T)/Eh          T*S/Eh         G(T)/Eh
   ------------------------------------------------------------------------
    298.15    0.625232E-02    0.710123E-01    0.342181E-01    0.367942E-01
   ------------------------------------------------------------------------

         :::::::::::::::::::::::::::::::::::::::::::::::::::::
         ::                  THERMODYNAMIC                  ::
         :::::::::::::::::::::::::::::::::::::::::::::::::::::
         :: total free energy         -16.101415179344 Eh   ::
         ::.................................................::
         :: total energy              -16.138209410594 Eh   ::
         :: zero point energy           0.064760002045 Eh   ::
         :: G(RRHO) w/o ZPVE           -0.027965770795 Eh   ::
         :: G(RRHO) contrib.            0.036794231250 Eh   ::
         :::::::::::::::::::::::::::::::::::::::::::::::::::::

           -------------------------------------------------
          | TOTAL ENERGY              -16.138209410594 Eh   |
          | TOTAL ENTHALPY            -16.067197086945 Eh   |
          | TOTAL FREE ENERGY         -16.101415179344 Eh   |
          | GRADIENT NORM               0.000045843199 Eh/α |
          | HOMO-LUMO GAP               2.875939752953 eV   |
           -------------------------------------------------

 * finished run on 2025/01/10 at 14:24:44.679
normal termination of xtb
