   * xtb version 6.7.1 (edcfbbe) compiled by 'albert@albert-system' on 2024-07-22

   ID    Z sym.   atoms
    1    8 O      1, 4, 10
    2    1 H      2, 3, 5, 6, 9, 11, 12, 15
    3    6 C      7, 13
    4    7 N      8, 14

          program call               : /home/adpal/xtb-dist/bin/xtb ./results/p_{0,49}_coordinatesxTB.xyz --ohess --uhf 1 --parallel 8
          :  Hamiltonian                  GFN2-xTB          :
 * total energy  :   -26.3930508 Eh     change       -0.7105427E-14 Eh
   *** GEOMETRY OPTIMIZATION CONVERGED AFTER 1 ITERATIONS ***

 final structure:
================
15
 xtb: 6.7.1 (edcfbbe)
O            4.59916601686285        0.00812465849160       -0.27110480321873
H            5.70499376096548       -0.90201042572069       -2.58850901868389
H            5.43350412942639       -0.46175781562317       -0.14701035523636
O            5.77126585694960        0.44050593028693       -4.72259214688952
H            4.63039939786494        2.25142492526140       -3.30519200150711
H            6.27846264483967       -0.37772107230730       -4.73317589903632
C            4.67417883690277        0.32710186322192       -3.84845892036714
N            4.00244231921964        1.58371560843453       -3.74091509840827
H            3.95074143468973       -0.41234154277085       -4.25607834540037
O            3.63696430396718       -1.55657274248193       -1.65588596294656
H            3.77543689328982        1.92175461071249       -4.66876346996543
H            2.95475826426689       -1.69826459047769       -0.99048424294302
C            4.12347592139027       -0.23761127200740       -1.54814534440371
N            5.14747756850500       -0.05352584242743       -2.53047617865957
H            3.32964265086022        0.49930770740773       -1.72600821233405

          :  Hamiltonian                  GFN2-xTB          :
         :: gradient norm              0.000019938628 Eh/a0 ::
         :: HOMO-LUMO gap             11.153094404691 eV    ::
         :: SCC energy               -26.586648982932 Eh    ::
         :: -> dispersion             -0.008418455840 Eh    ::
         :: repulsion energy           0.193598206636 Eh    ::

    * Orbital Energies and Occupations

         #    Occupation            Energy/Eh            Energy/eV
      -------------------------------------------------------------
         1        2.0000           -0.7149242             -19.4541
       ...           ...                  ...                  ...
        10        2.0000           -0.5696381             -15.5006
        11        2.0000           -0.5675527             -15.4439
        12        2.0000           -0.5456094             -14.8468
        13        2.0000           -0.5384554             -14.6521
        14        2.0000           -0.5254824             -14.2991
        15        2.0000           -0.4898882             -13.3305
        16        2.0000           -0.4868080             -13.2467
        17        2.0000           -0.4741326             -12.9018
        18        2.0000           -0.4512663             -12.2796
        19        2.0000           -0.4419518             -12.0261
        20        2.0000           -0.4383025             -11.9268
        21        2.0000           -0.3932581             -10.7011
        22        2.0000           -0.3913866             -10.6502 (HOMO)
        23                          0.0184820               0.5029 (LUMO)
        24                          0.0454479               1.2367
        25                          0.0533844               1.4527
        26                          0.0678876               1.8473
        27                          0.0929694               2.5298
        28                          0.0997178               2.7135
        29                          0.1426745               3.8824
        30                          0.1583457               4.3088
        31                          0.1606246               4.3708
        32                          0.1944905               5.2924
        33                          0.2073664               5.6427
       ...                                ...                  ...
        36                          0.2742674               7.4632
      -------------------------------------------------------------
                  HL-Gap            0.4098687 Eh           11.1531 eV

     #   Z          covCN         q      C6AA      α(0)
     1   8 O        1.657    -0.444    21.726     6.292
     2   1 H        0.860     0.165     1.306     1.790
     3   1 H        0.805     0.310     0.691     1.306
     4   8 O        1.657    -0.457    21.981     6.329
     5   1 H        0.860     0.175     1.245     1.748
     6   1 H        0.805     0.295     0.736     1.348
     7   6 C        3.598     0.263    17.062     5.977
     8   7 N        2.635    -0.355    29.145     8.018
     9   1 H        0.921    -0.001     3.084     2.746
    10   8 O        1.656    -0.477    22.412     6.391
    11   1 H        0.860     0.171     1.270     1.765
    12   1 H        0.805     0.307     0.701     1.315
    13   6 C        3.545     0.311    16.781     5.997
    14   7 N        2.684    -0.308    27.912     7.847
    15   1 H        0.924     0.046     2.367     2.406

Wiberg/Mayer (AO) data.
largest (>0.10) Wiberg bond orders for each atom

     #   Z sym  total        # sym  WBO       # sym  WBO       # sym  WBO
 ---------------------------------------------------------------------------
     1   8 O    1.989 --    13 C    1.001     3 H    0.884
     2   1 H    0.973 --    14 N    0.941
     3   1 H    0.904 --     1 O    0.884
     4   8 O    1.963 --     7 C    0.971     6 H    0.893
     5   1 H    0.970 --     8 N    0.952
     6   1 H    0.913 --     4 O    0.893
     7   6 C    3.953 --     8 N    1.039    14 N    0.980     4 O    0.971
                             9 H    0.945
     8   7 N    3.027 --     7 C    1.039    11 H    0.953     5 H    0.952
     9   1 H    1.000 --     7 C    0.945
    10   8 O    1.954 --    13 C    0.960    12 H    0.888
    11   1 H    0.971 --     8 N    0.953
    12   1 H    0.906 --    10 O    0.888
    13   6 C    3.934 --    14 N    1.008     1 O    1.001    10 O    0.960
                            15 H    0.945
    14   7 N    3.081 --    13 C    1.008     7 C    0.980     2 H    0.941
    15   1 H    0.998 --    13 C    0.945
 ---------------------------------------------------------------------------

molecular dipole:
                 x           y           z       tot (Debye)
 q only:        0.148      -0.330       0.114
   full:        0.311      -0.760      -0.038       2.090

 projected vibrational frequencies (cm⁻¹)
eigval :       -0.00    -0.00     0.00     0.00     0.00     0.00
eigval :       55.66    61.87   180.39   236.94   266.86   291.43
eigval :      324.72   371.52   417.62   460.11   479.54   556.80
eigval :      582.54   815.27   939.81   973.70   992.55  1033.27
eigval :     1065.60  1068.41  1098.39  1155.53  1187.34  1215.35
eigval :     1253.18  1291.46  1307.94  1341.74  1351.44  1401.52
eigval :     1533.38  2743.34  2935.93  3354.21  3402.94  3438.23
eigval :     3521.27  3553.50  3555.00

   temp. (K)  partition function   enthalpy   heat capacity  entropy
                                   cal/mol     cal/K/mol   cal/K/mol   J/K/mol
 298.15  VIB   207.                 3720.491     24.399     22.299
         ROT  0.268E+06              888.752      2.981     27.816
         INT  0.554E+08             4609.244     27.380     50.115
         TR   0.109E+28             1481.254      4.968     39.932
         TOT                        6090.4975    32.3477    90.0467   376.7554

       T/K    H(0)-H(T)+PV         H(T)/Eh          T*S/Eh         G(T)/Eh
   ------------------------------------------------------------------------
    298.15    0.970583E-02    0.127752E+00    0.427841E-01    0.849679E-01
   ------------------------------------------------------------------------

         :::::::::::::::::::::::::::::::::::::::::::::::::::::
         ::                  THERMODYNAMIC                  ::
         :::::::::::::::::::::::::::::::::::::::::::::::::::::
         :: total free energy         -26.308082833626 Eh   ::
         ::.................................................::
         :: total energy              -26.393050776296 Eh   ::
         :: zero point energy           0.118046209127 Eh   ::
         :: G(RRHO) w/o ZPVE           -0.033078266457 Eh   ::
         :: G(RRHO) contrib.            0.084967942670 Eh   ::
         :::::::::::::::::::::::::::::::::::::::::::::::::::::

           -------------------------------------------------
          | TOTAL ENERGY              -26.393050776296 Eh   |
          | TOTAL ENTHALPY            -26.265298741553 Eh   |
          | TOTAL FREE ENERGY         -26.308082833626 Eh   |
          | GRADIENT NORM               0.000019938794 Eh/α |
          | HOMO-LUMO GAP              11.153094354656 eV   |
           -------------------------------------------------

 * finished run on 2025/01/10 at 14:26:13.761
normal termination of xtb
