   * xtb version 6.7.1 (edcfbbe) compiled by 'albert@albert-system' on 2024-07-22

   ID    Z sym.   atoms
    1    8 O      1, 4
    2    1 H      2, 3, 5, 6, 9
    3    6 C      7
    4    7 N      8

          program call               : /home/adpal/xtb-dist/bin/xtb ./results/p_{0,14}_coordinatesxTB.xyz --ohess --uhf 1 --parallel 8
          :  Hamiltonian                  GFN2-xTB          :
 * total energy  :   -15.7331975 Eh     change       -0.1776357E-13 Eh
   *** GEOMETRY OPTIMIZATION CONVERGED AFTER 1 ITERATIONS ***

 final structure:
================
9
 xtb: 6.7.1 (edcfbbe)
O            1.38045391657495        0.33905723464364       -0.06132135518645
H            2.58839656754731       -0.76374990082978        2.04106841387854
H            0.82850071659097       -0.20081469207130        0.51857476104810
O            3.12818300391219       -1.13878211867750       -0.31567357063856
H            3.93480047240854        0.14772199212314        1.84005045777096
H            2.89322526751805       -1.17283175948231       -1.24928806962599
C            2.71301538643512        0.09771199598964        0.22867215346033
N            2.94523250103584        0.09756946666664        1.63777358067914
H            3.27139216797703        0.92683778163778       -0.23186637138606

          :  Hamiltonian                  GFN2-xTB          :
         :: gradient norm              0.000022764460 Eh/a0 ::
         :: HOMO-LUMO gap             12.231810714732 eV    ::
         :: SCC energy               -15.846714611955 Eh    ::
         :: -> dispersion             -0.003202994793 Eh    ::
         :: repulsion energy           0.113517086125 Eh    ::

    * Orbital Energies and Occupations

         #    Occupation            Energy/Eh            Energy/eV
      -------------------------------------------------------------
         1        2.0000           -0.7149828             -19.4557
         2        2.0000           -0.7019664             -19.1015
         3        2.0000           -0.6572225             -17.8839
         4        2.0000           -0.6255132             -17.0211
         5        2.0000           -0.5911975             -16.0873
         6        2.0000           -0.5733879             -15.6027
         7        2.0000           -0.5598486             -15.2343
         8        2.0000           -0.5397337             -14.6869
         9        2.0000           -0.5024743             -13.6730
        10        2.0000           -0.4787776             -13.0282
        11        2.0000           -0.4486054             -12.2072
        12        2.0000           -0.4397778             -11.9670
        13        2.0000           -0.4014657             -10.9244 (HOMO)
        14                          0.0480451               1.3074 (LUMO)
        15                          0.0619643               1.6861
        16                          0.0882259               2.4007
        17                          0.1133984               3.0857
        18                          0.1553115               4.2262
        19                          0.1878709               5.1122
        20                          0.2413251               6.5668
        21                          0.2558311               6.9615
      -------------------------------------------------------------
                  HL-Gap            0.4495108 Eh           12.2318 eV

     #   Z          covCN         q      C6AA      α(0)
     1   8 O        1.657    -0.448    21.812     6.305
     2   1 H        0.860     0.165     1.302     1.788
     3   1 H        0.805     0.310     0.690     1.305
     4   8 O        1.655    -0.481    22.478     6.400
     5   1 H        0.860     0.164     1.309     1.792
     6   1 H        0.805     0.303     0.713     1.326
     7   6 C        3.533     0.319    16.770     6.014
     8   7 N        2.630    -0.360    29.297     8.039
     9   1 H        0.923     0.028     2.617     2.530

Wiberg/Mayer (AO) data.
largest (>0.10) Wiberg bond orders for each atom

     #   Z sym  total        # sym  WBO       # sym  WBO       # sym  WBO
 ---------------------------------------------------------------------------
     1   8 O    1.986 --     7 C    1.001     3 H    0.883
     2   1 H    0.973 --     8 N    0.954
     3   1 H    0.904 --     1 O    0.883
     4   8 O    1.951 --     7 C    0.953     6 H    0.890
     5   1 H    0.973 --     8 N    0.958
     6   1 H    0.908 --     4 O    0.890
     7   6 C    3.938 --     8 N    1.032     1 O    1.001     4 O    0.953
                             9 H    0.949
     8   7 N    3.027 --     7 C    1.032     5 H    0.958     2 H    0.954
     9   1 H    0.999 --     7 C    0.949
 ---------------------------------------------------------------------------

molecular dipole:
                 x           y           z       tot (Debye)
 q only:       -0.039      -0.193       0.146
   full:        0.078      -0.495       0.033       1.276

 projected vibrational frequencies (cm⁻¹)
eigval :       -0.00    -0.00     0.00     0.00     0.00     0.00
eigval :      219.32   289.72   344.64   422.37   487.68   572.30
eigval :      907.87   950.52  1024.41  1055.90  1109.21  1201.90
eigval :     1274.15  1313.31  1357.90  1552.18  2896.85  3392.95
eigval :     3457.03  3521.08  3555.40

   temp. (K)  partition function   enthalpy   heat capacity  entropy
                                   cal/mol     cal/K/mol   cal/K/mol   J/K/mol
 298.15  VIB   3.58                 1421.726     11.437      7.303
         ROT  0.395E+05              888.752      2.981     24.012
         INT  0.141E+06             2310.478     14.417     31.314
         TR   0.484E+27             1481.254      4.968     38.326
         TOT                        3791.7321    19.3856    69.6404   291.3754

       T/K    H(0)-H(T)+PV         H(T)/Eh          T*S/Eh         G(T)/Eh
   ------------------------------------------------------------------------
    298.15    0.604251E-02    0.764531E-01    0.330884E-01    0.433647E-01
   ------------------------------------------------------------------------

         :::::::::::::::::::::::::::::::::::::::::::::::::::::
         ::                  THERMODYNAMIC                  ::
         :::::::::::::::::::::::::::::::::::::::::::::::::::::
         :: total free energy         -15.689832795606 Eh   ::
         ::.................................................::
         :: total energy              -15.733197525830 Eh   ::
         :: zero point energy           0.070410617373 Eh   ::
         :: G(RRHO) w/o ZPVE           -0.027045887149 Eh   ::
         :: G(RRHO) contrib.            0.043364730224 Eh   ::
         :::::::::::::::::::::::::::::::::::::::::::::::::::::

           -------------------------------------------------
          | TOTAL ENERGY              -15.733197525830 Eh   |
          | TOTAL ENTHALPY            -15.656744398737 Eh   |
          | TOTAL FREE ENERGY         -15.689832795606 Eh   |
          | GRADIENT NORM               0.000022761265 Eh/α |
          | HOMO-LUMO GAP              12.231810661272 eV   |
           -------------------------------------------------

 * finished run on 2025/01/10 at 14:24:12.766
normal termination of xtb
