   * xtb version 6.7.1 (edcfbbe) compiled by 'albert@albert-system' on 2024-07-22

   ID    Z sym.   atoms
    1    8 O      1, 7, 10
    2    1 H      2, 3, 6, 9, 11, 14
    3    6 C      4, 8, 12
    4    7 N      5, 13

          program call               : /home/adpal/xtb-dist/bin/xtb ./results/p_{0,68}_coordinatesxTB.xyz --ohess --uhf 1 --parallel 8
          :  Hamiltonian                  GFN2-xTB          :
 * total energy  :   -27.4902303 Eh     change       -0.7105427E-14 Eh
   *** GEOMETRY OPTIMIZATION CONVERGED AFTER 1 ITERATIONS ***

 final structure:
================
14
 xtb: 6.7.1 (edcfbbe)
O            1.40165910900951        0.57383544299824        0.67308055403701
H            3.10569933412265        2.20084194545767        0.16027070128691
H           -1.40125387722096       -0.80348381689940        0.92034843032343
C            0.41605251877015       -0.33678591289776        0.54808181694522
N           -0.69493265047794       -0.09156235400320        1.06413871295609
H            0.70235162405268       -1.23369143607680       -0.02603524789988
O            2.68061078127792       -2.21254648272217        1.44443780005710
C            3.35401918740673       -1.33768953001277        1.89748737127264
H            4.00046752282682       -1.43982842893862        2.78481934223686
O            3.47260780402186       -0.10652274660378        1.42631753559630
H            4.22469494461589        1.23244990948978       -0.58590581206038
C            2.67574353805469        0.25036469021063        0.24973176430169
N            3.23979397549929        1.36650731225348       -0.39877900734439
H            2.67743618804068       -0.63186859225522       -0.41559396170871

          :  Hamiltonian                  GFN2-xTB          :
         :: gradient norm              0.000046389361 Eh/a0 ::
         :: HOMO-LUMO gap              3.582628233133 eV    ::
         :: SCC energy               -27.737193844831 Eh    ::
         :: -> dispersion             -0.008852965987 Eh    ::
         :: repulsion energy           0.246963515592 Eh    ::

    * Orbital Energies and Occupations

         #    Occupation            Energy/Eh            Energy/eV
      -------------------------------------------------------------
         1        2.0000           -0.7784963             -21.1840
       ...           ...                  ...                  ...
        11        2.0000           -0.6085741             -16.5601
        12        2.0000           -0.5842257             -15.8976
        13        2.0000           -0.5656869             -15.3931
        14        2.0000           -0.5465610             -14.8727
        15        2.0000           -0.5347498             -14.5513
        16        2.0000           -0.5260269             -14.3139
        17        2.0000           -0.5174613             -14.0808
        18        2.0000           -0.5070566             -13.7977
        19        2.0000           -0.4916211             -13.3777
        20        2.0000           -0.4582772             -12.4704
        21        2.0000           -0.4446359             -12.0992
        22        2.0000           -0.4254004             -11.5757
        23        2.0000           -0.3951790             -10.7534 (HOMO)
        24                         -0.2635199              -7.1707 (LUMO)
        25                         -0.2360203              -6.4224
        26                         -0.0367769              -1.0007
        27                         -0.0023811              -0.0648
        28                          0.0404744               1.1014
        29                          0.0975205               2.6537
        30                          0.1250560               3.4029
        31                          0.1303647               3.5474
        32                          0.1435958               3.9074
        33                          0.1722392               4.6869
        34                          0.2136300               5.8132
       ...                                ...                  ...
        38                          0.6323594              17.2074
      -------------------------------------------------------------
                  HL-Gap            0.1316592 Eh            3.5826 eV

     #   Z          covCN         q      C6AA      α(0)
     1   8 O        1.711    -0.235    17.888     5.710
     2   1 H        0.860     0.193     1.140     1.673
     3   1 H        0.860     0.170     1.274     1.768
     4   6 C        2.717     0.229    23.197     7.884
     5   7 N        1.774    -0.313    28.931     7.965
     6   1 H        0.923     0.011     2.869     2.649
     7   8 O        0.856    -0.368    21.059     6.153
     8   6 C        2.652     0.346    21.125     7.520
     9   1 H        0.923     0.045     2.382     2.414
    10   8 O        1.697    -0.289    18.800     5.854
    11   1 H        0.860     0.182     1.203     1.718
    12   6 C        3.576     0.320    16.438     5.892
    13   7 N        2.631    -0.336    28.656     7.950
    14   1 H        0.922     0.045     2.384     2.415

Wiberg/Mayer (AO) data.
largest (>0.10) Wiberg bond orders for each atom

     #   Z sym  total        # sym  WBO       # sym  WBO       # sym  WBO
 ---------------------------------------------------------------------------
     1   8 O    2.308 --     4 C    1.075    12 C    0.994     5 N    0.125
     2   1 H    0.963 --    13 N    0.944
     3   1 H    0.971 --     5 N    0.943
     4   6 C    3.920 --     5 N    1.887     1 O    1.075     6 H    0.926
     5   7 N    3.028 --     4 C    1.887     3 H    0.943     1 O    0.125
     6   1 H    1.000 --     4 C    0.926
     7   8 O    2.073 --     8 C    1.814    10 O    0.188
     8   6 C    3.913 --     7 O    1.814    10 O    1.163     9 H    0.913
     9   1 H    0.998 --     8 C    0.913
    10   8 O    2.309 --     8 C    1.163    12 C    0.856     7 O    0.188
    11   1 H    0.966 --    13 N    0.949
    12   6 C    3.917 --    13 N    1.071     1 O    0.994    14 H    0.938
                            10 O    0.856
    13   7 N    3.058 --    12 C    1.071    11 H    0.949     2 H    0.944
    14   1 H    0.998 --    12 C    0.938
 ---------------------------------------------------------------------------

molecular dipole:
                 x           y           z       tot (Debye)
 q only:        0.684       0.428      -0.476
   full:        1.154       0.035      -0.411       3.116

 projected vibrational frequencies (cm⁻¹)
eigval :       -0.00    -0.00    -0.00    -0.00    -0.00     0.00
eigval :       41.80    61.42   149.01   187.39   233.53   248.57
eigval :      296.28   355.02   470.06   527.09   585.99   719.23
eigval :      773.74   841.31   902.28   935.57   953.07   967.42
eigval :     1068.60  1141.91  1166.97  1207.04  1247.53  1281.64
eigval :     1316.68  1341.06  1372.20  1509.12  1739.58  1795.05
eigval :     2798.05  2834.33  2841.33  3404.85  3420.82  3460.77

   temp. (K)  partition function   enthalpy   heat capacity  entropy
                                   cal/mol     cal/K/mol   cal/K/mol   J/K/mol
 298.15  VIB   353.                 3690.107     22.803     22.728
         ROT  0.369E+06              888.752      2.981     28.454
         INT  0.130E+09             4578.860     25.784     51.182
         TR   0.124E+28             1481.254      4.968     40.195
         TOT                        6060.1136    30.7517    91.3776   382.3237

       T/K    H(0)-H(T)+PV         H(T)/Eh          T*S/Eh         G(T)/Eh
   ------------------------------------------------------------------------
    298.15    0.965741E-02    0.110344E+00    0.434164E-01    0.669276E-01
   ------------------------------------------------------------------------

         :::::::::::::::::::::::::::::::::::::::::::::::::::::
         ::                  THERMODYNAMIC                  ::
         :::::::::::::::::::::::::::::::::::::::::::::::::::::
         :: total free energy         -27.423302731006 Eh   ::
         ::.................................................::
         :: total energy              -27.490230329239 Eh   ::
         :: zero point energy           0.100686620485 Eh   ::
         :: G(RRHO) w/o ZPVE           -0.033759022251 Eh   ::
         :: G(RRHO) contrib.            0.066927598233 Eh   ::
         :::::::::::::::::::::::::::::::::::::::::::::::::::::

           -------------------------------------------------
          | TOTAL ENERGY              -27.490230329239 Eh   |
          | TOTAL ENTHALPY            -27.379886303022 Eh   |
          | TOTAL FREE ENERGY         -27.423302731006 Eh   |
          | GRADIENT NORM               0.000046388081 Eh/α |
          | HOMO-LUMO GAP               3.582627914661 eV   |
           -------------------------------------------------

 * finished run on 2025/01/10 at 14:27:05.529
normal termination of xtb
