   * xtb version 6.7.1 (edcfbbe) compiled by 'albert@albert-system' on 2024-07-22

   ID    Z sym.   atoms
    1    8 O      1, 10
    2    1 H      2, 3, 6, 9, 11, 12, 15
    3    6 C      4, 7, 13
    4    7 N      5, 8, 14

          program call               : /home/adpal/xtb-dist/bin/xtb ./results/p_{0,36}_coordinatesxTB.xyz --ohess --uhf 1 --parallel 8
          :  Hamiltonian                  GFN2-xTB          :
 * total energy  :   -26.8840246 Eh     change        0.1065814E-13 Eh
   *** GEOMETRY OPTIMIZATION CONVERGED AFTER 1 ITERATIONS ***

 final structure:
================
15
 xtb: 6.7.1 (edcfbbe)
O            1.84580944542863        0.63642665768059        0.10220925451686
H            5.79352270278073       -0.05046856801686       -2.29959927797443
H            2.49931952388560       -0.86358578712607       -2.59477847226252
C            1.69763962440460        0.11812060921902       -0.98807739679199
N            2.67391226932549       -0.45838347789644       -1.68911521199377
H            0.71617994499638        0.07541197821856       -1.48463820750109
C            4.07655869919034       -0.40598535904301       -1.28319376251476
N            4.85174306646888       -0.36549679601509       -2.49648733013467
H            4.21646339754492        0.54314116622515       -0.73812641739105
O            3.46424825773804       -0.91656523021608        1.54844806804778
H            4.92356016366112       -1.30850913957016       -2.86706848672643
H            2.96337493499848       -0.18960830756428        1.09220229134825
C            4.17470022569387       -1.66979015371172        0.73573821867075
N            4.45967695199388       -1.54959643829773       -0.48636810538266
H            4.58506079188906       -2.54119115388595        1.24027483608973

          :  Hamiltonian                  GFN2-xTB          :
         :: gradient norm              0.000023488333 Eh/a0 ::
         :: HOMO-LUMO gap              4.115229437335 eV    ::
         :: SCC energy               -27.156079831778 Eh    ::
         :: -> dispersion             -0.010296560773 Eh    ::
         :: repulsion energy           0.272055197304 Eh    ::

    * Orbital Energies and Occupations

         #    Occupation            Energy/Eh            Energy/eV
      -------------------------------------------------------------
         1        2.0000           -0.7263756             -19.7657
       ...           ...                  ...                  ...
        11        2.0000           -0.5686214             -15.4730
        12        2.0000           -0.5572254             -15.1629
        13        2.0000           -0.5512959             -15.0015
        14        2.0000           -0.5389179             -14.6647
        15        2.0000           -0.5264892             -14.3265
        16        2.0000           -0.5218053             -14.1990
        17        2.0000           -0.4932735             -13.4227
        18        2.0000           -0.4797572             -13.0549
        19        2.0000           -0.4450332             -12.1100
        20        2.0000           -0.4330651             -11.7843
        21        2.0000           -0.4204666             -11.4415
        22        2.0000           -0.4011886             -10.9169
        23        2.0000           -0.3914131             -10.6509 (HOMO)
        24                         -0.2401812              -6.5357 (LUMO)
        25                         -0.2253080              -6.1309
        26                         -0.0105314              -0.2866
        27                          0.0474097               1.2901
        28                          0.0610496               1.6612
        29                          0.0818574               2.2275
        30                          0.1005710               2.7367
        31                          0.1377340               3.7479
        32                          0.1597261               4.3464
        33                          0.1923214               5.2333
        34                          0.2319587               6.3119
       ...                                ...                  ...
        39                          0.6228979              16.9499
      -------------------------------------------------------------
                  HL-Gap            0.1512319 Eh            4.1152 eV

     #   Z          covCN         q      C6AA      α(0)
     1   8 O        0.858    -0.424    22.176     6.314
     2   1 H        0.860     0.163     1.315     1.797
     3   1 H        0.860     0.194     1.138     1.671
     4   6 C        2.697     0.255    22.699     7.798
     5   7 N        2.689    -0.176    24.804     7.397
     6   1 H        0.923     0.022     2.704     2.571
     7   6 C        3.673     0.200    17.646     6.020
     8   7 N        2.640    -0.352    29.078     8.009
     9   1 H        0.923     0.038     2.475     2.460
    10   8 O        1.655    -0.374    20.356     6.091
    11   1 H        0.860     0.166     1.298     1.784
    12   1 H        0.801     0.349     0.592     1.209
    13   6 C        2.710     0.222    23.313     7.903
    14   7 N        1.824    -0.341    29.693     8.074
    15   1 H        0.925     0.058     2.224     2.332

Wiberg/Mayer (AO) data.
largest (>0.10) Wiberg bond orders for each atom

     #   Z sym  total        # sym  WBO       # sym  WBO       # sym  WBO
 ---------------------------------------------------------------------------
     1   8 O    2.039 --     4 C    1.659     5 N    0.212
     2   1 H    0.973 --     8 N    0.957
     3   1 H    0.962 --     5 N    0.933
     4   6 C    3.951 --     1 O    1.659     5 N    1.327     6 H    0.926
     5   7 N    3.486 --     4 C    1.327     7 C    0.945     3 H    0.933
                             1 O    0.212
     6   1 H    0.999 --     4 C    0.926
     7   6 C    3.964 --     8 N    1.027    14 N    0.989     9 H    0.945
                             5 N    0.945
     8   7 N    3.021 --     7 C    1.027     2 H    0.957    11 H    0.955
     9   1 H    0.999 --     7 C    0.945
    10   8 O    2.229 --    13 C    1.197    12 H    0.786    14 N    0.193
    11   1 H    0.972 --     8 N    0.955
    12   1 H    0.879 --    10 O    0.786
    13   6 C    3.941 --    14 N    1.758    10 O    1.197    15 H    0.940
    14   7 N    3.031 --    13 C    1.758     7 C    0.989    10 O    0.193
    15   1 H    0.996 --    13 C    0.940
 ---------------------------------------------------------------------------

molecular dipole:
                 x           y           z       tot (Debye)
 q only:        0.228      -0.370      -1.112
   full:        0.090      -0.398      -1.164       3.135

 projected vibrational frequencies (cm⁻¹)
eigval :       -0.00    -0.00    -0.00     0.00     0.00     0.00
eigval :       85.41   132.06   204.63   216.93   233.84   284.75
eigval :      330.85   411.15   451.69   530.20   576.68   724.97
eigval :      744.23   801.58   904.98   911.44   921.75   950.52
eigval :     1041.83  1114.82  1141.90  1182.62  1206.84  1253.92
eigval :     1278.13  1309.34  1339.97  1357.46  1407.22  1554.86
eigval :     1693.07  1750.57  2833.35  2836.48  2965.55  3008.33
eigval :     3395.65  3442.81  3465.05

   temp. (K)  partition function   enthalpy   heat capacity  entropy
                                   cal/mol     cal/K/mol   cal/K/mol   J/K/mol
 298.15  VIB   67.9                 3420.984     23.861     19.771
         ROT  0.337E+06              888.752      2.981     28.272
         INT  0.228E+08             4309.736     26.841     48.043
         TR   0.123E+28             1481.254      4.968     40.170
         TOT                        5790.9898    31.8096    88.2137   369.0863

       T/K    H(0)-H(T)+PV         H(T)/Eh          T*S/Eh         G(T)/Eh
   ------------------------------------------------------------------------
    298.15    0.922853E-02    0.123131E+00    0.419132E-01    0.812178E-01
   ------------------------------------------------------------------------

         :::::::::::::::::::::::::::::::::::::::::::::::::::::
         ::                  THERMODYNAMIC                  ::
         :::::::::::::::::::::::::::::::::::::::::::::::::::::
         :: total free energy         -26.802806820137 Eh   ::
         ::.................................................::
         :: total energy              -26.884024634474 Eh   ::
         :: zero point energy           0.113902481889 Eh   ::
         :: G(RRHO) w/o ZPVE           -0.032684667552 Eh   ::
         :: G(RRHO) contrib.            0.081217814337 Eh   ::
         :::::::::::::::::::::::::::::::::::::::::::::::::::::

           -------------------------------------------------
          | TOTAL ENERGY              -26.884024634474 Eh   |
          | TOTAL ENTHALPY            -26.760893622930 Eh   |
          | TOTAL FREE ENERGY         -26.802806820137 Eh   |
          | GRADIENT NORM               0.000023458069 Eh/α |
          | HOMO-LUMO GAP               4.115230027249 eV   |
           -------------------------------------------------

 * finished run on 2025/01/10 at 14:25:19.678
normal termination of xtb
