   * xtb version 6.7.1 (edcfbbe) compiled by 'albert@albert-system' on 2024-07-22

   ID    Z sym.   atoms
    1    8 O      1, 4, 13
    2    1 H      2, 3, 5, 6, 9, 12, 14, 15, 18
    3    6 C      7, 10, 16
    4    7 N      8, 11, 17

          program call               : /home/adpal/xtb-dist/bin/xtb ./results/p_{0,39}_coordinatesxTB.xyz --ohess --uhf 1 --parallel 8
          :  Hamiltonian                  GFN2-xTB          :
 * total energy  :   -31.9622623 Eh     change        0.7105427E-14 Eh
   *** GEOMETRY OPTIMIZATION CONVERGED AFTER 1 ITERATIONS ***

 final structure:
================
18
 xtb: 6.7.1 (edcfbbe)
O            2.59521080765060        1.67952005818067       -1.42839291170766
H            1.97480493127319       -0.00145980653974        2.04022966231799
H            3.31353787518040        1.33552853161003       -1.97499276055762
O            3.95972364184457        3.04744696573701       -0.17731477182897
H            4.68033858720982        0.74452417617039       -0.02275776459879
H            3.52207181024064        3.80956660755495       -0.57275867738051
C            3.07496688368426        1.95432523564293       -0.16159602655603
N            3.75413120399468        0.81903479069566        0.39089530365820
H            2.18891133190776        2.16882538252163        0.45359182817177
C            2.20831123761914        1.26553004400147        3.58630835993761
N            1.10564316830848        0.95242912808434        4.11493530235240
H            2.93940211375463        1.99125325064671        3.96969343720224
O            4.72610495921886       -0.23846181972121        2.20214328637545
H            0.89591435613955        1.44267227297961        4.97702716455087
H            4.34947572547224       -1.06346562942353        1.86917048207541
C            3.89330286946871        0.81398029824959        1.83802218663165
N            2.58638432905105        0.71408966971779        2.40694740377375
H            4.37912416798177        1.72215084389161        2.23192849558125

          :  Hamiltonian                  GFN2-xTB          :
         :: gradient norm              0.000030580507 Eh/a0 ::
         :: HOMO-LUMO gap              4.568048560401 eV    ::
         :: SCC energy               -32.240310041622 Eh    ::
         :: -> dispersion             -0.011634137221 Eh    ::
         :: repulsion energy           0.278047765516 Eh    ::

    * Orbital Energies and Occupations

         #    Occupation            Energy/Eh            Energy/eV
      -------------------------------------------------------------
         1        2.0000           -0.7271017             -19.7854
       ...           ...                  ...                  ...
        15        2.0000           -0.5473922             -14.8953
        16        2.0000           -0.5312520             -14.4561
        17        2.0000           -0.5167470             -14.0614
        18        2.0000           -0.5004105             -13.6169
        19        2.0000           -0.4939046             -13.4398
        20        2.0000           -0.4859370             -13.2230
        21        2.0000           -0.4821954             -13.1212
        22        2.0000           -0.4655635             -12.6686
        23        2.0000           -0.4537701             -12.3477
        24        2.0000           -0.4511711             -12.2770
        25        2.0000           -0.4097205             -11.1491
        26        2.0000           -0.3907314             -10.6323
        27        2.0000           -0.3704496             -10.0804 (HOMO)
        28                         -0.2025769              -5.5124 (LUMO)
        29                         -0.0011600              -0.0316
        30                          0.0237736               0.6469
        31                          0.0463117               1.2602
        32                          0.0657213               1.7884
        33                          0.0751364               2.0446
        34                          0.0906878               2.4677
        35                          0.0968909               2.6365
        36                          0.1444360               3.9303
        37                          0.1473914               4.0107
        38                          0.1721015               4.6831
       ...                                ...                  ...
        45                          0.5908040              16.0766
      -------------------------------------------------------------
                  HL-Gap            0.1678727 Eh            4.5680 eV

     #   Z          covCN         q      C6AA      α(0)
     1   8 O        1.658    -0.442    21.684     6.286
     2   1 H        0.860     0.194     1.135     1.669
     3   1 H        0.805     0.313     0.683     1.298
     4   8 O        1.656    -0.475    22.355     6.383
     5   1 H        0.860     0.181     1.208     1.721
     6   1 H        0.805     0.310     0.692     1.307
     7   6 C        3.543     0.315    16.746     5.993
     8   7 N        2.684    -0.317    28.155     7.881
     9   1 H        0.923     0.035     2.518     2.481
    10   6 C        2.750     0.148    24.758     8.148
    11   7 N        1.787    -0.370    30.466     8.175
    12   1 H        0.923    -0.001     3.068     2.739
    13   8 O        1.657    -0.437    21.577     6.271
    14   1 H        0.860     0.142     1.460     1.893
    15   1 H        0.805     0.311     0.688     1.303
    16   6 C        3.605     0.250    17.211     5.996
    17   7 N        2.702    -0.203    25.403     7.486
    18   1 H        0.923     0.045     2.385     2.415

Wiberg/Mayer (AO) data.
largest (>0.10) Wiberg bond orders for each atom

     #   Z sym  total        # sym  WBO       # sym  WBO       # sym  WBO
 ---------------------------------------------------------------------------
     1   8 O    1.991 --     7 C    1.005     3 H    0.882
     2   1 H    0.962 --    17 N    0.927
     3   1 H    0.902 --     1 O    0.882
     4   8 O    1.957 --     7 C    0.964     6 H    0.886
     5   1 H    0.967 --     8 N    0.936
     6   1 H    0.904 --     4 O    0.886
     7   6 C    3.938 --     1 O    1.005     8 N    1.005     4 O    0.964
                             9 H    0.945
     8   7 N    3.077 --     7 C    1.005    16 C    0.976     5 H    0.936
     9   1 H    0.999 --     7 C    0.945
    10   6 C    3.964 --    11 N    1.798    17 N    1.206    12 H    0.934
    11   7 N    2.987 --    10 C    1.798    14 H    0.953    17 N    0.167
    12   1 H    1.000 --    10 C    0.934
    13   8 O    1.992 --    16 C    1.000    15 H    0.884
    14   1 H    0.979 --    11 N    0.953
    15   1 H    0.903 --    13 O    0.884
    16   6 C    3.952 --    13 O    1.000    17 N    0.998     8 N    0.976
                            18 H    0.942
    17   7 N    3.395 --    10 C    1.206    16 C    0.998     2 H    0.927
                            11 N    0.167
    18   1 H    0.998 --    16 C    0.942
 ---------------------------------------------------------------------------

molecular dipole:
                 x           y           z       tot (Debye)
 q only:        0.310      -0.148      -0.834
   full:        0.652       0.230      -0.842       2.769

 projected vibrational frequencies (cm⁻¹)
eigval :       -0.00    -0.00    -0.00     0.00     0.00     0.00
eigval :       25.13    44.74    83.70   129.37   165.58   226.60
eigval :      290.02   316.03   354.85   401.92   422.96   454.97
eigval :      494.11   548.43   564.53   591.65   610.34   758.46
eigval :      834.02   970.27   980.05  1010.88  1047.57  1055.95
eigval :     1080.43  1102.60  1112.10  1189.96  1209.24  1215.23
eigval :     1244.04  1285.95  1292.99  1316.72  1338.95  1348.23
eigval :     1387.96  1422.53  1724.60  2829.34  2861.90  2911.45
eigval :     3361.95  3397.89  3439.24  3514.10  3515.74  3550.54

   temp. (K)  partition function   enthalpy   heat capacity  entropy
                                   cal/mol     cal/K/mol   cal/K/mol   J/K/mol
 298.15  VIB  0.400E+04             4910.307     30.288     30.177
         ROT  0.674E+06              888.752      2.981     29.653
         INT  0.270E+10             5799.059     33.269     59.830
         TR   0.152E+28             1481.254      4.968     40.597
         TOT                        7280.3130    38.2371   100.4273   420.1879

       T/K    H(0)-H(T)+PV         H(T)/Eh          T*S/Eh         G(T)/Eh
   ------------------------------------------------------------------------
    298.15    0.116019E-01    0.150652E+00    0.477163E-01    0.102935E+00
   ------------------------------------------------------------------------

         :::::::::::::::::::::::::::::::::::::::::::::::::::::
         ::                  THERMODYNAMIC                  ::
         :::::::::::::::::::::::::::::::::::::::::::::::::::::
         :: total free energy         -31.859326894569 Eh   ::
         ::.................................................::
         :: total energy              -31.962262276106 Eh   ::
         :: zero point energy           0.139049720182 Eh   ::
         :: G(RRHO) w/o ZPVE           -0.036114338645 Eh   ::
         :: G(RRHO) contrib.            0.102935381537 Eh   ::
         :::::::::::::::::::::::::::::::::::::::::::::::::::::

           -------------------------------------------------
          | TOTAL ENERGY              -31.962262276106 Eh   |
          | TOTAL ENTHALPY            -31.811610638728 Eh   |
          | TOTAL FREE ENERGY         -31.859326894569 Eh   |
          | GRADIENT NORM               0.000030577698 Eh/α |
          | HOMO-LUMO GAP               4.568048626671 eV   |
           -------------------------------------------------

 * finished run on 2025/01/10 at 14:25:32.739
normal termination of xtb
