   * xtb version 6.7.1 (edcfbbe) compiled by 'albert@albert-system' on 2024-07-22

   ID    Z sym.   atoms
    1    7 N      1, 5, 10
    2    1 H      2-4, 6-8, 11
    3    6 C      9

          program call               : /home/adpal/xtb-dist/bin/xtb ./results/p_{0,11}_coordinatesxTB.xyz --ohess --uhf 1 --parallel 8
          :  Hamiltonian                  GFN2-xTB          :
 * total energy  :   -14.4400316 Eh     change        0.1065814E-13 Eh
   *** GEOMETRY OPTIMIZATION CONVERGED AFTER 1 ITERATIONS ***

 final structure:
================
11
 xtb: 6.7.1 (edcfbbe)
N            1.11220765276080        0.06867301577006       -0.04044133091039
H            2.77870287626524       -0.33502656427061       -2.11015434216118
H            0.72217251351464        0.48746559784166       -0.87875687007389
H            0.77289585816061       -0.88283832534431        0.02340547508601
N            3.00129374409652        1.43878878047881       -0.11043937138729
H            4.02012141811228       -0.89826532491812       -1.19143208479967
H            4.01209027373741        1.49527215390760       -0.11370578560011
H            2.63920293324068        1.93965008726777       -0.91465850653708
C            2.54813042777991        0.06634299593089       -0.10351441053813
N            3.01645395726000       -0.76345879057456       -1.21963223407907
H            2.92543834507190       -0.40164362608917        0.81449946100079

          :  Hamiltonian                  GFN2-xTB          :
         :: gradient norm              0.000025109627 Eh/a0 ::
         :: HOMO-LUMO gap             10.899311026558 eV    ::
         :: SCC energy               -14.599839503537 Eh    ::
         :: -> dispersion             -0.004673137555 Eh    ::
         :: repulsion energy           0.159807938413 Eh    ::

    * Orbital Energies and Occupations

         #    Occupation            Energy/Eh            Energy/eV
      -------------------------------------------------------------
         1        2.0000           -0.6516115             -17.7313
         2        2.0000           -0.6078662             -16.5409
         3        2.0000           -0.6036537             -16.4263
         4        2.0000           -0.5766845             -15.6924
         5        2.0000           -0.5459565             -14.8562
         6        2.0000           -0.5293147             -14.4034
         7        2.0000           -0.5146941             -14.0055
         8        2.0000           -0.5039247             -13.7125
         9        2.0000           -0.4775368             -12.9944
        10        2.0000           -0.4509731             -12.2716
        11        2.0000           -0.4006387             -10.9019
        12        2.0000           -0.3753416             -10.2136
        13        2.0000           -0.3650280              -9.9329 (HOMO)
        14                          0.0355143               0.9664 (LUMO)
        15                          0.0509425               1.3862
        16                          0.0848470               2.3088
        17                          0.1013298               2.7573
        18                          0.1375532               3.7430
        19                          0.1679983               4.5715
        20                          0.2171922               5.9101
        21                          0.2232220               6.0742
        22                          0.2522334               6.8636
        23                          0.2774378               7.5495
      -------------------------------------------------------------
                  HL-Gap            0.4005423 Eh           10.8993 eV

     #   Z          covCN         q      C6AA      α(0)
     1   7 N        2.637    -0.344    28.860     7.979
     2   1 H        0.860     0.135     1.511     1.926
     3   1 H        0.860     0.146     1.430     1.873
     4   1 H        0.860     0.157     1.356     1.824
     5   7 N        2.635    -0.358    29.216     8.028
     6   1 H        0.860     0.135     1.504     1.921
     7   1 H        0.860     0.142     1.456     1.890
     8   1 H        0.860     0.143     1.450     1.887
     9   6 C        3.646     0.196    17.798     6.063
    10   7 N        2.630    -0.387    30.003     8.135
    11   1 H        0.924     0.035     2.520     2.483

Wiberg/Mayer (AO) data.
largest (>0.10) Wiberg bond orders for each atom

     #   Z sym  total        # sym  WBO       # sym  WBO       # sym  WBO
 ---------------------------------------------------------------------------
     1   7 N    3.025 --     9 C    1.028     3 H    0.961     4 H    0.960
     2   1 H    0.982 --    10 N    0.965
     3   1 H    0.979 --     1 N    0.961
     4   1 H    0.975 --     1 N    0.960
     5   7 N    3.024 --     9 C    1.012     7 H    0.965     8 H    0.962
     6   1 H    0.982 --    10 N    0.967
     7   1 H    0.980 --     5 N    0.965
     8   1 H    0.980 --     5 N    0.962
     9   6 C    3.974 --     1 N    1.028     5 N    1.012    10 N    0.975
                            11 H    0.957
    10   7 N    3.005 --     9 C    0.975     6 H    0.967     2 H    0.965
    11   1 H    0.999 --     9 C    0.957
 ---------------------------------------------------------------------------

molecular dipole:
                 x           y           z       tot (Debye)
 q only:        0.134       0.022      -0.347
   full:        0.539       0.009      -1.025       2.943

 projected vibrational frequencies (cm⁻¹)
eigval :       -0.00    -0.00    -0.00    -0.00     0.00     0.00
eigval :      195.11   259.69   283.74   410.21   415.94   523.63
eigval :      834.15   889.27   927.42   948.48  1008.17  1021.18
eigval :     1078.14  1161.07  1282.93  1300.70  1340.92  1540.18
eigval :     1559.61  1564.76  2924.70  3372.55  3390.04  3395.42
eigval :     3425.49  3439.16  3446.65

   temp. (K)  partition function   enthalpy   heat capacity  entropy
                                   cal/mol     cal/K/mol   cal/K/mol   J/K/mol
 298.15  VIB   4.88                 1671.056     13.258      8.756
         ROT  0.438E+05              888.752      2.981     24.218
         INT  0.214E+06             2559.809     16.239     32.974
         TR   0.462E+27             1481.254      4.968     38.231
         TOT                        4041.0624    21.2070    71.2052   297.9226

       T/K    H(0)-H(T)+PV         H(T)/Eh          T*S/Eh         G(T)/Eh
   ------------------------------------------------------------------------
    298.15    0.643984E-02    0.101985E+00    0.338319E-01    0.681527E-01
   ------------------------------------------------------------------------

         :::::::::::::::::::::::::::::::::::::::::::::::::::::
         ::                  THERMODYNAMIC                  ::
         :::::::::::::::::::::::::::::::::::::::::::::::::::::
         :: total free energy         -14.371878861876 Eh   ::
         ::.................................................::
         :: total energy              -14.440031565125 Eh   ::
         :: zero point energy           0.095544753529 Eh   ::
         :: G(RRHO) w/o ZPVE           -0.027392050280 Eh   ::
         :: G(RRHO) contrib.            0.068152703249 Eh   ::
         :::::::::::::::::::::::::::::::::::::::::::::::::::::

           -------------------------------------------------
          | TOTAL ENERGY              -14.440031565125 Eh   |
          | TOTAL ENTHALPY            -14.338046968678 Eh   |
          | TOTAL FREE ENERGY         -14.371878861876 Eh   |
          | GRADIENT NORM               0.000025110357 Eh/α |
          | HOMO-LUMO GAP              10.899311059053 eV   |
           -------------------------------------------------

 * finished run on 2025/01/10 at 14:24:09.790
normal termination of xtb
