   * xtb version 6.7.1 (edcfbbe) compiled by 'albert@albert-system' on 2024-07-22

   ID    Z sym.   atoms
    1    8 O      1, 10
    2    1 H      2, 3, 6, 9, 11, 12, 15
    3    6 C      4, 7, 13
    4    7 N      5, 8, 14

          program call               : /home/adpal/xtb-dist/bin/xtb ./results/p_{0,33}_coordinatesxTB.xyz --ohess --uhf 1 --parallel 8
          :  Hamiltonian                  GFN2-xTB          :
 * total energy  :   -26.8585972 Eh     change       -0.3907985E-13 Eh
   *** GEOMETRY OPTIMIZATION CONVERGED AFTER 1 ITERATIONS ***

 final structure:
================
15
 xtb: 6.7.1 (edcfbbe)
O            0.80441927582389       -2.77970927642993        4.24266012125598
H            0.80168374514491       -2.33593151136756        1.12004481330733
H            1.35268412956214       -3.57269684262046        2.07302623800367
C            0.32382854006452       -2.17467808872544        3.08720966943363
N            1.19613202660536       -2.57279613004278        2.02178166296589
H            0.35419451104875       -1.06485807982171        3.16376709982691
C           -1.95101014866268       -1.78353306872535        2.55364287084930
N           -1.03466131338151       -2.61659784843263        2.84820616524097
H           -1.77025730900477       -0.70287339221373        2.51098191222228
O           -2.84582900920731       -4.40108468753340        2.55611651611878
H            0.26492471736345       -2.51565437047398        4.99533454960818
H           -1.92164685352194       -4.05674840762268        2.76244296045172
C           -3.58525315732333       -3.36359647983037        2.27679483463299
N           -3.23974895806964       -2.13030459214691        2.25739103715125
H           -4.61801019644181       -3.59623722401299        2.03423954892961

          :  Hamiltonian                  GFN2-xTB          :
         :: gradient norm              0.000047521447 Eh/a0 ::
         :: HOMO-LUMO gap              2.556024036009 eV    ::
         :: SCC energy               -27.121122194649 Eh    ::
         :: -> dispersion             -0.009537481644 Eh    ::
         :: repulsion energy           0.262524956881 Eh    ::

    * Orbital Energies and Occupations

         #    Occupation            Energy/Eh            Energy/eV
      -------------------------------------------------------------
         1        2.0000           -0.7461937             -20.3050
       ...           ...                  ...                  ...
        11        2.0000           -0.5709995             -15.5377
        12        2.0000           -0.5687627             -15.4768
        13        2.0000           -0.5446654             -14.8211
        14        2.0000           -0.5402652             -14.7014
        15        2.0000           -0.5109746             -13.9043
        16        2.0000           -0.5064157             -13.7803
        17        2.0000           -0.5037646             -13.7081
        18        2.0000           -0.4799559             -13.0603
        19        2.0000           -0.4531632             -12.3312
        20        2.0000           -0.4373164             -11.9000
        21        2.0000           -0.4166539             -11.3377
        22        2.0000           -0.4030261             -10.9669
        23        2.0000           -0.3878626             -10.5543 (HOMO)
        24                         -0.2939304              -7.9983 (LUMO)
        25                         -0.1918139              -5.2195
        26                          0.0285525               0.7770
        27                          0.0402192               1.0944
        28                          0.0822281               2.2375
        29                          0.1021206               2.7788
        30                          0.1182657               3.2182
        31                          0.1302625               3.5446
        32                          0.1633669               4.4454
        33                          0.1908682               5.1938
        34                          0.1940318               5.2799
       ...                                ...                  ...
        39                          0.6007851              16.3482
      -------------------------------------------------------------
                  HL-Gap            0.0939322 Eh            2.5560 eV

     #   Z          covCN         q      C6AA      α(0)
     1   8 O        1.660    -0.428    21.389     6.243
     2   1 H        0.860     0.155     1.365     1.830
     3   1 H        0.860     0.176     1.236     1.742
     4   6 C        3.613     0.271    16.882     5.931
     5   7 N        2.634    -0.340    28.757     7.964
     6   1 H        0.921    -0.009     3.216     2.805
     7   6 C        2.829     0.164    24.451     8.103
     8   7 N        1.834    -0.336    29.569     8.058
     9   1 H        0.924     0.014     2.819     2.626
    10   8 O        1.653    -0.338    19.680     5.989
    11   1 H        0.805     0.302     0.715     1.328
    12   1 H        0.804     0.354     0.578     1.194
    13   6 C        2.751     0.231    23.154     7.879
    14   7 N        1.827    -0.288    28.322     7.886
    15   1 H        0.925     0.070     2.085     2.258

Wiberg/Mayer (AO) data.
largest (>0.10) Wiberg bond orders for each atom

     #   Z sym  total        # sym  WBO       # sym  WBO       # sym  WBO
 ---------------------------------------------------------------------------
     1   8 O    1.987 --     4 C    0.998    11 H    0.892
     2   1 H    0.976 --     5 N    0.960
     3   1 H    0.969 --     5 N    0.952
     4   6 C    3.953 --     5 N    1.020     1 O    0.998     8 N    0.962
                             6 H    0.939
     5   7 N    3.046 --     4 C    1.020     2 H    0.960     3 H    0.952
     6   1 H    1.000 --     4 C    0.939
     7   6 C    3.964 --     8 N    1.749    14 N    1.176     9 H    0.938
     8   7 N    3.128 --     7 C    1.749     4 C    0.962
     9   1 H    1.000 --     7 C    0.938
    10   8 O    2.290 --    13 C    1.266    12 H    0.757    14 N    0.160
    11   1 H    0.909 --     1 O    0.892
    12   1 H    0.874 --    10 O    0.757
    13   6 C    3.935 --    14 N    1.615    10 O    1.266    15 H    0.945
    14   7 N    3.044 --    13 C    1.615     7 C    1.176    10 O    0.160
    15   1 H    0.995 --    13 C    0.945
 ---------------------------------------------------------------------------

molecular dipole:
                 x           y           z       tot (Debye)
 q only:       -0.300      -0.110      -0.026
   full:       -0.452       0.064      -0.001       1.161

 projected vibrational frequencies (cm⁻¹)
eigval :       -0.00    -0.00    -0.00     0.00     0.00     0.00
eigval :       39.66    96.89   138.26   167.19   198.01   251.62
eigval :      332.95   363.40   415.03   506.80   546.56   577.37
eigval :      805.95   833.42   906.59   915.89   957.87   982.73
eigval :     1042.76  1092.53  1098.35  1162.52  1197.34  1254.83
eigval :     1271.96  1294.98  1327.22  1329.79  1347.81  1517.44
eigval :     1595.85  1667.95  2696.48  2733.14  2881.40  3028.06
eigval :     3411.67  3451.52  3557.39

   temp. (K)  partition function   enthalpy   heat capacity  entropy
                                   cal/mol     cal/K/mol   cal/K/mol   J/K/mol
 298.15  VIB   326.                 3800.896     24.008     23.125
         ROT  0.381E+06              888.752      2.981     28.517
         INT  0.124E+09             4689.648     26.988     51.642
         TR   0.123E+28             1481.254      4.968     40.170
         TOT                        6170.9019    31.9566    91.8128   384.1447

       T/K    H(0)-H(T)+PV         H(T)/Eh          T*S/Eh         G(T)/Eh
   ------------------------------------------------------------------------
    298.15    0.983396E-02    0.121458E+00    0.436232E-01    0.778345E-01
   ------------------------------------------------------------------------

         :::::::::::::::::::::::::::::::::::::::::::::::::::::
         ::                  THERMODYNAMIC                  ::
         :::::::::::::::::::::::::::::::::::::::::::::::::::::
         :: total free energy         -26.780762721247 Eh   ::
         ::.................................................::
         :: total energy              -26.858597237769 Eh   ::
         :: zero point energy           0.111623781312 Eh   ::
         :: G(RRHO) w/o ZPVE           -0.033789264790 Eh   ::
         :: G(RRHO) contrib.            0.077834516522 Eh   ::
         :::::::::::::::::::::::::::::::::::::::::::::::::::::

           -------------------------------------------------
          | TOTAL ENERGY              -26.858597237769 Eh   |
          | TOTAL ENTHALPY            -26.737139498337 Eh   |
          | TOTAL FREE ENERGY         -26.780762721247 Eh   |
          | GRADIENT NORM               0.000047517509 Eh/α |
          | HOMO-LUMO GAP               2.556024374041 eV   |
           -------------------------------------------------

 * finished run on 2025/01/10 at 14:25:07.072
normal termination of xtb
