   * xtb version 6.7.1 (edcfbbe) compiled by 'albert@albert-system' on 2024-07-22

   ID    Z sym.   atoms
    1    8 O      1, 7
    2    1 H      2, 3, 6, 9, 11, 12, 15
    3    6 C      4, 8, 13
    4    7 N      5, 10, 14

          program call               : /home/adpal/xtb-dist/bin/xtb ./results/p_{0,65}_coordinatesxTB.xyz --ohess --uhf 1 --parallel 8
          :  Hamiltonian                  GFN2-xTB          :
 * total energy  :   -26.8814532 Eh     change        0.1776357E-13 Eh
   *** GEOMETRY OPTIMIZATION CONVERGED AFTER 1 ITERATIONS ***

 final structure:
================
15
 xtb: 6.7.1 (edcfbbe)
O            1.13272514160849       -2.66735657005527       -0.11028611575929
H            3.62488956228423       -2.59662135731116       -0.01936410915027
H            5.41534311357627       -0.37560206660304       -0.05888691131946
C            1.81317975714788       -1.85385877084137        0.45775767244744
N            3.15583637479830       -1.89954446243197        0.54551983907740
H            1.39071459954817       -0.99710832119776        1.01755234208263
O            4.53499333227779       -0.04535104948042        0.16248119009028
C            4.00511506736338       -0.87370542662915        1.14010441189738
H            3.35023352704963       -0.24512278674686        1.76769617129571
N            3.73275786309916       -2.67058907710146        3.39050486576824
H            3.72833483974258       -3.35605980583829        4.12370401749329
H            2.85835263644403       -2.46640025876221        2.93717283869381
C            4.89463438271725       -2.24217058064231        2.85392291742812
N            5.08108918711687       -1.45810673788016        1.87640016509490
H            5.78891061522571       -2.60627272847845        3.34725070486004

          :  Hamiltonian                  GFN2-xTB          :
         :: gradient norm              0.000034405977 Eh/a0 ::
         :: HOMO-LUMO gap              4.585255864272 eV    ::
         :: SCC energy               -27.164723824596 Eh    ::
         :: -> dispersion             -0.009883907849 Eh    ::
         :: repulsion energy           0.283270627480 Eh    ::

    * Orbital Energies and Occupations

         #    Occupation            Energy/Eh            Energy/eV
      -------------------------------------------------------------
         1        2.0000           -0.7110763             -19.3494
       ...           ...                  ...                  ...
        11        2.0000           -0.5784030             -15.7391
        12        2.0000           -0.5639355             -15.3455
        13        2.0000           -0.5416541             -14.7392
        14        2.0000           -0.5355664             -14.5735
        15        2.0000           -0.5225880             -14.2203
        16        2.0000           -0.5132992             -13.9676
        17        2.0000           -0.5111010             -13.9078
        18        2.0000           -0.4805142             -13.0755
        19        2.0000           -0.4503023             -12.2533
        20        2.0000           -0.4284042             -11.6575
        21        2.0000           -0.4179994             -11.3743
        22        2.0000           -0.4065804             -11.0636
        23        2.0000           -0.3983323             -10.8392 (HOMO)
        24                         -0.2298272              -6.2539 (LUMO)
        25                         -0.2224921              -6.0543
        26                         -0.0029937              -0.0815
        27                          0.0055928               0.1522
        28                          0.0626728               1.7054
        29                          0.0837993               2.2803
        30                          0.0914671               2.4889
        31                          0.1376844               3.7466
        32                          0.1537331               4.1833
        33                          0.2058743               5.6021
        34                          0.2183384               5.9413
       ...                                ...                  ...
        39                          0.6337483              17.2452
      -------------------------------------------------------------
                  HL-Gap            0.1685051 Eh            4.5853 eV

     #   Z          covCN         q      C6AA      α(0)
     1   8 O        0.858    -0.399    21.658     6.240
     2   1 H        0.860     0.194     1.138     1.671
     3   1 H        0.805     0.320     0.664     1.280
     4   6 C        2.692     0.259    22.635     7.786
     5   7 N        2.683    -0.217    25.736     7.534
     6   1 H        0.922     0.005     2.968     2.694
     7   8 O        1.658    -0.434    21.510     6.261
     8   6 C        3.619     0.256    17.059     5.956
     9   1 H        0.923     0.032     2.557     2.501
    10   7 N        2.635    -0.251    26.530     7.650
    11   1 H        0.861     0.183     1.195     1.713
    12   1 H        0.860     0.182     1.204     1.719
    13   6 C        2.771     0.140    24.941     8.179
    14   7 N        1.827    -0.327    29.331     8.025
    15   1 H        0.925     0.057     2.236     2.339

Wiberg/Mayer (AO) data.
largest (>0.10) Wiberg bond orders for each atom

     #   Z sym  total        # sym  WBO       # sym  WBO       # sym  WBO
 ---------------------------------------------------------------------------
     1   8 O    2.040 --     4 C    1.744     5 N    0.210
     2   1 H    0.962 --     5 N    0.928
     3   1 H    0.898 --     7 O    0.877
     4   6 C    3.951 --     1 O    1.744     5 N    1.260     6 H    0.918
     5   7 N    3.432 --     4 C    1.260     8 C    0.943     2 H    0.928
                             1 O    0.210
     6   1 H    1.000 --     4 C    0.918
     7   8 O    1.993 --     8 C    1.008     3 H    0.877
     8   6 C    3.953 --    14 N    1.014     7 O    1.008     5 N    0.943
                             9 H    0.938
     9   1 H    0.999 --     8 C    0.938
    10   7 N    3.379 --    13 C    1.258    11 H    0.950    12 H    0.942
                            14 N    0.204
    11   1 H    0.966 --    10 N    0.950
    12   1 H    0.967 --    10 N    0.942
    13   6 C    3.967 --    14 N    1.716    10 N    1.258    15 H    0.949
    14   7 N    3.034 --    13 C    1.716     8 C    1.014    10 N    0.204
    15   1 H    0.997 --    13 C    0.949
 ---------------------------------------------------------------------------

molecular dipole:
                 x           y           z       tot (Debye)
 q only:        1.054      -0.420       1.359
   full:        0.898      -0.638       1.583       4.902

 projected vibrational frequencies (cm⁻¹)
eigval :       -0.00    -0.00    -0.00     0.00     0.00     0.00
eigval :       43.01    58.87   136.51   180.59   214.10   266.76
eigval :      288.12   311.22   383.01   449.32   512.65   550.93
eigval :      628.61   634.58   667.76   910.33   953.62   984.97
eigval :     1019.95  1043.66  1099.00  1194.82  1213.46  1239.82
eigval :     1259.39  1314.92  1334.24  1338.00  1406.79  1470.33
eigval :     1730.66  1784.67  2767.03  2836.88  3030.03  3411.81
eigval :     3481.53  3514.66  3544.92

   temp. (K)  partition function   enthalpy   heat capacity  entropy
                                   cal/mol     cal/K/mol   cal/K/mol   J/K/mol
 298.15  VIB   546.                 4084.065     25.376     24.918
         ROT  0.414E+06              888.752      2.981     28.685
         INT  0.226E+09             4972.818     28.357     53.603
         TR   0.123E+28             1481.254      4.968     40.170
         TOT                        6454.0716    33.3252    93.7733   392.3475

       T/K    H(0)-H(T)+PV         H(T)/Eh          T*S/Eh         G(T)/Eh
   ------------------------------------------------------------------------
    298.15    0.102852E-01    0.122397E+00    0.445547E-01    0.778426E-01
   ------------------------------------------------------------------------

         :::::::::::::::::::::::::::::::::::::::::::::::::::::
         ::                  THERMODYNAMIC                  ::
         :::::::::::::::::::::::::::::::::::::::::::::::::::::
         :: total free energy         -26.803610635539 Eh   ::
         ::.................................................::
         :: total energy              -26.881453197116 Eh   ::
         :: zero point energy           0.112112071034 Eh   ::
         :: G(RRHO) w/o ZPVE           -0.034269509456 Eh   ::
         :: G(RRHO) contrib.            0.077842561577 Eh   ::
         :::::::::::::::::::::::::::::::::::::::::::::::::::::

           -------------------------------------------------
          | TOTAL ENERGY              -26.881453197116 Eh   |
          | TOTAL ENTHALPY            -26.759055908258 Eh   |
          | TOTAL FREE ENERGY         -26.803610635539 Eh   |
          | GRADIENT NORM               0.000034407048 Eh/α |
          | HOMO-LUMO GAP               4.585256002418 eV   |
           -------------------------------------------------

 * finished run on 2025/01/10 at 14:26:55.983
normal termination of xtb
