   * xtb version 6.7.1 (edcfbbe) compiled by 'albert@albert-system' on 2024-07-22

   ID    Z sym.   atoms
    1    8 O      1, 7, 10
    2    1 H      2, 3, 6, 9, 11, 14
    3    6 C      4, 8, 12
    4    7 N      5, 13

          program call               : /home/adpal/xtb-dist/bin/xtb ./results/p_{0,67}_coordinatesxTB.xyz --ohess --uhf 1 --parallel 8
          :  Hamiltonian                  GFN2-xTB          :
 * total energy  :   -27.4981305 Eh     change       -0.3552714E-13 Eh
   *** GEOMETRY OPTIMIZATION CONVERGED AFTER 1 ITERATIONS ***

 final structure:
================
14
 xtb: 6.7.1 (edcfbbe)
O           -0.77568201182690        0.39882314388236       -0.28478222985782
H            1.23342634930248       -0.56373557033280        0.83402702760195
H            3.56892905186039       -1.15746694423470       -0.23852558540652
C            0.35813268577297        0.75611918539686       -0.43063266352457
N            1.42481041918958        0.18220195631955        0.17684537155525
H            0.65876990439960        1.58796602062149       -1.09232464172331
O            3.55177635878873       -0.29522510784969       -0.67631258288241
C            2.78674063969018        0.59200056396906        0.05059000058011
H            2.82944815992175        1.54343772622132       -0.50371066907051
O            3.28472960818667        0.73398558365938        1.35937931168037
H            5.71373815839265        2.15559265298339        2.74014482083253
C            4.36339180486917        1.51723161165103        1.54119775781320
N            4.92156346487789        1.52963578108165        2.65829313641835
H            4.64977540657450        2.09350339663096        0.64356094598335

          :  Hamiltonian                  GFN2-xTB          :
         :: gradient norm              0.000042262998 Eh/a0 ::
         :: HOMO-LUMO gap              4.321454067816 eV    ::
         :: SCC energy               -27.750072624979 Eh    ::
         :: -> dispersion             -0.008184402877 Eh    ::
         :: repulsion energy           0.251942138008 Eh    ::

    * Orbital Energies and Occupations

         #    Occupation            Energy/Eh            Energy/eV
      -------------------------------------------------------------
         1        2.0000           -0.7720812             -21.0094
       ...           ...                  ...                  ...
        11        2.0000           -0.6028539             -16.4045
        12        2.0000           -0.5703326             -15.5195
        13        2.0000           -0.5606299             -15.2555
        14        2.0000           -0.5511277             -14.9969
        15        2.0000           -0.5461501             -14.8615
        16        2.0000           -0.5317946             -14.4709
        17        2.0000           -0.5296118             -14.4115
        18        2.0000           -0.5095306             -13.8650
        19        2.0000           -0.4917706             -13.3818
        20        2.0000           -0.4555882             -12.3972
        21        2.0000           -0.4489745             -12.2172
        22        2.0000           -0.4252591             -11.5719
        23        2.0000           -0.4057624             -11.0414 (HOMO)
        24                         -0.2469519              -6.7199 (LUMO)
        25                         -0.2389882              -6.5032
        26                         -0.0294573              -0.8016
        27                         -0.0017417              -0.0474
        28                          0.0506372               1.3779
        29                          0.0690908               1.8801
        30                          0.1075868               2.9276
        31                          0.1133565               3.0846
        32                          0.1334244               3.6307
        33                          0.1773158               4.8250
        34                          0.2042479               5.5579
       ...                                ...                  ...
        38                          0.6331392              17.2286
      -------------------------------------------------------------
                  HL-Gap            0.1588105 Eh            4.3215 eV

     #   Z          covCN         q      C6AA      α(0)
     1   8 O        0.858    -0.366    21.004     6.145
     2   1 H        0.860     0.213     1.041     1.599
     3   1 H        0.805     0.325     0.651     1.268
     4   6 C        2.693     0.261    22.599     7.780
     5   7 N        2.683    -0.208    25.517     7.502
     6   1 H        0.923     0.019     2.748     2.593
     7   8 O        1.657    -0.429    21.419     6.248
     8   6 C        3.567     0.312    16.594     5.931
     9   1 H        0.923     0.055     2.264     2.353
    10   8 O        1.709    -0.266    18.412     5.793
    11   1 H        0.860     0.169     1.280     1.772
    12   6 C        2.715     0.230    23.164     7.878
    13   7 N        1.774    -0.314    28.953     7.968
    14   1 H        0.923    -0.002     3.085     2.747

Wiberg/Mayer (AO) data.
largest (>0.10) Wiberg bond orders for each atom

     #   Z sym  total        # sym  WBO       # sym  WBO       # sym  WBO
 ---------------------------------------------------------------------------
     1   8 O    2.067 --     4 C    1.782     5 N    0.203
     2   1 H    0.955 --     5 N    0.919
     3   1 H    0.895 --     7 O    0.874
     4   6 C    3.946 --     1 O    1.782     5 N    1.223     6 H    0.919
     5   7 N    3.419 --     4 C    1.223     8 C    0.995     2 H    0.919
                             1 O    0.203
     6   1 H    1.000 --     4 C    0.919
     7   8 O    2.006 --     8 C    1.014     3 H    0.874
     8   6 C    3.933 --     7 O    1.014     5 N    0.995    10 O    0.943
                             9 H    0.937
     9   1 H    0.997 --     8 C    0.937
    10   8 O    2.278 --    12 C    1.083     8 C    0.943    13 N    0.129
    11   1 H    0.970 --    13 N    0.943
    12   6 C    3.925 --    13 N    1.886    10 O    1.083    14 H    0.927
    13   7 N    3.028 --    12 C    1.886    11 H    0.943    10 O    0.129
    14   1 H    1.000 --    12 C    0.927
 ---------------------------------------------------------------------------

molecular dipole:
                 x           y           z       tot (Debye)
 q only:        1.056      -0.041      -0.127
   full:        1.328       0.180      -0.416       3.566

 projected vibrational frequencies (cm⁻¹)
eigval :       -0.00    -0.00     0.00     0.00     0.00     0.00
eigval :       29.36    58.09    99.61   128.89   177.91   292.89
eigval :      351.13   384.63   445.93   509.01   592.72   610.53
eigval :      663.64   775.96   946.42   966.13   978.43  1042.26
eigval :     1067.27  1091.33  1195.30  1219.40  1227.40  1263.06
eigval :     1319.68  1343.95  1367.98  1411.00  1741.97  1796.21
eigval :     2774.90  2794.26  2887.42  3406.53  3412.92  3499.95

   temp. (K)  partition function   enthalpy   heat capacity  entropy
                                   cal/mol     cal/K/mol   cal/K/mol   J/K/mol
 298.15  VIB   920.                 3860.326     22.884     24.456
         ROT  0.434E+06              888.752      2.981     28.777
         INT  0.399E+09             4749.078     25.865     53.233
         TR   0.124E+28             1481.254      4.968     40.195
         TOT                        6230.3324    30.8327    93.4285   390.9046

       T/K    H(0)-H(T)+PV         H(T)/Eh          T*S/Eh         G(T)/Eh
   ------------------------------------------------------------------------
    298.15    0.992867E-02    0.109881E+00    0.443909E-01    0.654903E-01
   ------------------------------------------------------------------------

         :::::::::::::::::::::::::::::::::::::::::::::::::::::
         ::                  THERMODYNAMIC                  ::
         :::::::::::::::::::::::::::::::::::::::::::::::::::::
         :: total free energy         -27.432640210587 Eh   ::
         ::.................................................::
         :: total energy              -27.498130486970 Eh   ::
         :: zero point energy           0.099952482334 Eh   ::
         :: G(RRHO) w/o ZPVE           -0.034462205951 Eh   ::
         :: G(RRHO) contrib.            0.065490276383 Eh   ::
         :::::::::::::::::::::::::::::::::::::::::::::::::::::

           -------------------------------------------------
          | TOTAL ENERGY              -27.498130486970 Eh   |
          | TOTAL ENTHALPY            -27.388249338001 Eh   |
          | TOTAL FREE ENERGY         -27.432640210587 Eh   |
          | GRADIENT NORM               0.000042269196 Eh/α |
          | HOMO-LUMO GAP               4.321454485484 eV   |
           -------------------------------------------------

 * finished run on 2025/01/10 at 14:27:02.649
normal termination of xtb
