   * xtb version 6.7.1 (edcfbbe) compiled by 'albert@albert-system' on 2024-07-22

   ID    Z sym.   atoms
    1    8 O      1, 2
    2    1 H      3, 5
    3    6 C      4

          program call               : /home/adpal/xtb-dist/bin/xtb ./results/p_{0,54}_coordinatesxTB.xyz --ohess --uhf 1 --parallel 8
          :  Hamiltonian                  GFN2-xTB          :
 * total energy  :   -11.2717073 Eh     change       -0.1776357E-14 Eh
   *** GEOMETRY OPTIMIZATION CONVERGED AFTER 1 ITERATIONS ***

 final structure:
================
5
 xtb: 6.7.1 (edcfbbe)
O            1.07884404634364        0.00108957880734       -0.11617453754152
O            2.93230003930235        0.80507582534391        0.80766105708383
H            3.89194066394509        0.73683270372342        0.73061993539852
C            2.26344315170297        0.04659850427562       -0.06246605158429
H            2.92046209870595       -0.54288661215029       -0.73732040335654

          :  Hamiltonian                  GFN2-xTB          :
         :: gradient norm              0.000039760071 Eh/a0 ::
         :: HOMO-LUMO gap              5.023971481229 eV    ::
         :: SCC energy               -11.359063977962 Eh    ::
         :: -> dispersion             -0.001222084654 Eh    ::
         :: repulsion energy           0.087356658250 Eh    ::

    * Orbital Energies and Occupations

         #    Occupation            Energy/Eh            Energy/eV
      -------------------------------------------------------------
         1        2.0000           -0.7628574             -20.7584
         2        2.0000           -0.7380849             -20.0843
         3        2.0000           -0.6643173             -18.0770
         4        2.0000           -0.6388827             -17.3849
         5        2.0000           -0.5944643             -16.1762
         6        2.0000           -0.5703490             -15.5200
         7        2.0000           -0.5293764             -14.4051
         8        2.0000           -0.4956381             -13.4870
         9        2.0000           -0.4388716             -11.9423 (HOMO)
        10                         -0.2542440              -6.9183 (LUMO)
        11                          0.0441661               1.2018
        12                          0.1017965               2.7700
        13                          0.2956566               8.0452
        14                          0.6376366              17.3510
      -------------------------------------------------------------
                  HL-Gap            0.1846275 Eh            5.0240 eV

     #   Z          covCN         q      C6AA      α(0)
     1   8 O        0.856    -0.325    20.233     6.031
     2   8 O        1.659    -0.348    19.862     6.016
     3   1 H        0.805     0.327     0.644     1.261
     4   6 C        2.631     0.344    21.161     7.525
     5   1 H        0.921     0.001     3.045     2.729

Wiberg/Mayer (AO) data.
largest (>0.10) Wiberg bond orders for each atom

     #   Z sym  total        # sym  WBO       # sym  WBO       # sym  WBO
 ---------------------------------------------------------------------------
     1   8 O    2.111 --     4 C    1.854     2 O    0.184
     2   8 O    2.231 --     4 C    1.148     3 H    0.876     1 O    0.184
     3   1 H    0.893 --     2 O    0.876
     4   6 C    3.923 --     1 O    1.854     2 O    1.148     5 H    0.920
     5   1 H    1.000 --     4 C    0.920
 ---------------------------------------------------------------------------

molecular dipole:
                 x           y           z       tot (Debye)
 q only:        1.296      -0.044      -0.049
   full:        1.704      -0.132      -0.149       4.361

 projected vibrational frequencies (cm⁻¹)
eigval :       -0.00    -0.00    -0.00     0.00     0.00     0.00
eigval :      485.47   609.77   950.71  1107.27  1184.47  1408.97
eigval :     1827.32  2731.12  3508.59

   temp. (K)  partition function   enthalpy   heat capacity  entropy
                                   cal/mol     cal/K/mol   cal/K/mol   J/K/mol
 298.15  VIB   1.19                  304.188      3.343      1.368
         ROT  0.826E+04              888.752      2.981     20.906
         INT  0.984E+04             1192.940      6.324     22.273
         TR   0.302E+27             1481.254      4.968     37.388
         TOT                        2674.1940    11.2921    59.6612   249.6223

       T/K    H(0)-H(T)+PV         H(T)/Eh          T*S/Eh         G(T)/Eh
   ------------------------------------------------------------------------
    298.15    0.426160E-02    0.357315E-01    0.283469E-01    0.738457E-02
   ------------------------------------------------------------------------

         :::::::::::::::::::::::::::::::::::::::::::::::::::::
         ::                  THERMODYNAMIC                  ::
         :::::::::::::::::::::::::::::::::::::::::::::::::::::
         :: total free energy         -11.264322750586 Eh   ::
         ::.................................................::
         :: total energy              -11.271707319712 Eh   ::
         :: zero point energy           0.031469916929 Eh   ::
         :: G(RRHO) w/o ZPVE           -0.024085347803 Eh   ::
         :: G(RRHO) contrib.            0.007384569126 Eh   ::
         :::::::::::::::::::::::::::::::::::::::::::::::::::::

           -------------------------------------------------
          | TOTAL ENERGY              -11.271707319712 Eh   |
          | TOTAL ENTHALPY            -11.235975803409 Eh   |
          | TOTAL FREE ENERGY         -11.264322750586 Eh   |
          | GRADIENT NORM               0.000039753510 Eh/α |
          | HOMO-LUMO GAP               5.023971059189 eV   |
           -------------------------------------------------

 * finished run on 2025/01/10 at 14:26:20.569
normal termination of xtb
