   * xtb version 6.7.1 (edcfbbe) compiled by 'albert@albert-system' on 2024-07-22

   ID    Z sym.   atoms
    1    8 O      1
    2    1 H      2, 3, 6, 8-10, 13
    3    6 C      4, 11
    4    7 N      5, 7, 12

          program call               : /home/adpal/xtb-dist/bin/xtb ./results/p_{0,8}_coordinatesxTB.xyz --ohess --uhf 1 --parallel 8
          :  Hamiltonian                  GFN2-xTB          :
 * total energy  :   -20.6336173 Eh     change        0.3552714E-14 Eh
   *** GEOMETRY OPTIMIZATION CONVERGED AFTER 1 ITERATIONS ***

 final structure:
================
13
 xtb: 6.7.1 (edcfbbe)
O            4.08722706859153       -0.40594278525592       -2.13196488010506
H            3.03877821982111       -1.79013100177968       -4.73376559644094
H            5.19392840493864       -1.93164253612460       -0.45031766414328
C            3.34927385949631       -1.15304807383963       -2.95665037632478
N            3.65776082633166       -1.21968079894696       -4.16932602268929
H            2.49988150216738       -1.66014755161432       -2.46601927997329
N            4.41783560575544        0.67610411959463       -0.17358443714919
H            4.01123837474040       -1.89941506766465        0.70411937808663
H            4.40312859759343        0.63347500658830        0.83747020194106
H            5.37319927530771        0.76236360871630       -0.49982020029019
C            3.79202958819460       -0.47901698745591       -0.76186598180604
N            4.20399742963085       -1.78493901752116       -0.28279327415635
H            2.70381124743090       -0.40472891469635       -0.58634186694932

          :  Hamiltonian                  GFN2-xTB          :
         :: gradient norm              0.000023174340 Eh/a0 ::
         :: HOMO-LUMO gap              4.393647333841 eV    ::
         :: SCC energy               -20.847709908771 Eh    ::
         :: -> dispersion             -0.006859549031 Eh    ::
         :: repulsion energy           0.214092611310 Eh    ::

    * Orbital Energies and Occupations

         #    Occupation            Energy/Eh            Energy/eV
      -------------------------------------------------------------
         1        2.0000           -0.7345013             -19.9868
       ...           ...                  ...                  ...
         6        2.0000           -0.6102874             -16.6068
         7        2.0000           -0.5822637             -15.8442
         8        2.0000           -0.5674326             -15.4406
         9        2.0000           -0.5398068             -14.6889
        10        2.0000           -0.5226714             -14.2226
        11        2.0000           -0.5211385             -14.1809
        12        2.0000           -0.5085883             -13.8394
        13        2.0000           -0.4987168             -13.5708
        14        2.0000           -0.4798915             -13.0585
        15        2.0000           -0.4252422             -11.5714
        16        2.0000           -0.4179158             -11.3721
        17        2.0000           -0.3889733             -10.5845
        18        2.0000           -0.3802688             -10.3476 (HOMO)
        19                         -0.2188052              -5.9540 (LUMO)
        20                          0.0056661               0.1542
        21                          0.0401545               1.0927
        22                          0.0417707               1.1366
        23                          0.0962918               2.6202
        24                          0.1225275               3.3341
        25                          0.1374135               3.7392
        26                          0.1483412               4.0366
        27                          0.2030777               5.5260
        28                          0.2157183               5.8700
        29                          0.2360619               6.4236
       ...                                ...                  ...
        31                          0.5861893              15.9510
      -------------------------------------------------------------
                  HL-Gap            0.1614636 Eh            4.3936 eV

     #   Z          covCN         q      C6AA      α(0)
     1   8 O        1.711    -0.239    17.952     5.721
     2   1 H        0.860     0.157     1.353     1.822
     3   1 H        0.860     0.160     1.337     1.811
     4   6 C        2.723     0.231    23.155     7.877
     5   7 N        1.774    -0.331    29.394     8.028
     6   1 H        0.923    -0.006     3.158     2.779
     7   7 N        2.631    -0.361    29.304     8.040
     8   1 H        0.860     0.152     1.384     1.843
     9   1 H        0.860     0.156     1.363     1.829
    10   1 H        0.860     0.169     1.276     1.770
    11   6 C        3.624     0.260    16.987     5.940
    12   7 N        2.629    -0.378    29.767     8.103
    13   1 H        0.922     0.029     2.607     2.525

Wiberg/Mayer (AO) data.
largest (>0.10) Wiberg bond orders for each atom

     #   Z sym  total        # sym  WBO       # sym  WBO       # sym  WBO
 ---------------------------------------------------------------------------
     1   8 O    2.308 --     4 C    1.112    11 C    0.957     5 N    0.137
     2   1 H    0.974 --     5 N    0.949
     3   1 H    0.974 --    12 N    0.958
     4   6 C    3.930 --     5 N    1.860     1 O    1.112     6 H    0.929
     5   7 N    3.015 --     4 C    1.860     2 H    0.949     1 O    0.137
     6   1 H    1.000 --     4 C    0.929
     7   7 N    3.022 --    11 C    1.016     9 H    0.959    10 H    0.954
     8   1 H    0.977 --    12 N    0.961
     9   1 H    0.975 --     7 N    0.959
    10   1 H    0.971 --     7 N    0.954
    11   6 C    3.944 --     7 N    1.016    12 N    0.998     1 O    0.957
                            13 H    0.947
    12   7 N    3.018 --    11 C    0.998     8 H    0.961     3 H    0.958
    13   1 H    0.999 --    11 C    0.947
 ---------------------------------------------------------------------------

molecular dipole:
                 x           y           z       tot (Debye)
 q only:       -0.060      -0.215       0.965
   full:       -0.093      -0.519       1.589       4.255

 projected vibrational frequencies (cm⁻¹)
eigval :       -0.00    -0.00    -0.00     0.00     0.00     0.00
eigval :       67.47   111.23   176.47   225.73   278.38   368.08
eigval :      463.17   534.39   566.91   770.96   851.61   899.26
eigval :      931.06   968.42  1025.20  1078.80  1092.14  1120.87
eigval :     1197.25  1268.89  1305.31  1323.16  1376.09  1519.32
eigval :     1532.84  1733.59  2777.60  2838.46  3398.91  3400.53
eigval :     3412.92  3447.60  3454.83

   temp. (K)  partition function   enthalpy   heat capacity  entropy
                                   cal/mol     cal/K/mol   cal/K/mol   J/K/mol
 298.15  VIB   53.6                 2841.576     18.951     17.196
         ROT  0.151E+06              888.752      2.981     26.675
         INT  0.808E+07             3730.328     21.932     43.871
         TR   0.814E+27             1481.254      4.968     39.356
         TOT                        5211.5819    26.8997    83.2274   348.2236

       T/K    H(0)-H(T)+PV         H(T)/Eh          T*S/Eh         G(T)/Eh
   ------------------------------------------------------------------------
    298.15    0.830518E-02    0.112002E+00    0.395440E-01    0.724575E-01
   ------------------------------------------------------------------------

         :::::::::::::::::::::::::::::::::::::::::::::::::::::
         ::                  THERMODYNAMIC                  ::
         :::::::::::::::::::::::::::::::::::::::::::::::::::::
         :: total free energy         -20.561159767669 Eh   ::
         ::.................................................::
         :: total energy              -20.633617297461 Eh   ::
         :: zero point energy           0.103696391862 Eh   ::
         :: G(RRHO) w/o ZPVE           -0.031238862069 Eh   ::
         :: G(RRHO) contrib.            0.072457529792 Eh   ::
         :::::::::::::::::::::::::::::::::::::::::::::::::::::

           -------------------------------------------------
          | TOTAL ENERGY              -20.633617297461 Eh   |
          | TOTAL ENTHALPY            -20.521615721266 Eh   |
          | TOTAL FREE ENERGY         -20.561159767669 Eh   |
          | GRADIENT NORM               0.000023165152 Eh/α |
          | HOMO-LUMO GAP               4.393647764926 eV   |
           -------------------------------------------------

 * finished run on 2025/01/10 at 14:24:08.880
normal termination of xtb
