   * xtb version 6.7.1 (edcfbbe) compiled by 'albert@albert-system' on 2024-07-22

   ID    Z sym.   atoms
    1    8 O      1, 2, 6
    2    1 H      3, 5, 8, 10, 11, 14
    3    6 C      4, 7, 12
    4    7 N      9, 13

          program call               : /home/adpal/xtb-dist/bin/xtb ./results/p_{0,66}_coordinatesxTB.xyz --ohess --uhf 1 --parallel 8
          :  Hamiltonian                  GFN2-xTB          :
 * total energy  :   -27.5035310 Eh     change        0.7105427E-14 Eh
   *** GEOMETRY OPTIMIZATION CONVERGED AFTER 1 ITERATIONS ***

 final structure:
================
14
 xtb: 6.7.1 (edcfbbe)
O            3.11765396486667       -0.96688644557119        0.78910237829780
O            2.67673851382785       -0.11449056005458       -1.19877435572228
H            2.06041721790554        0.41261347391319       -1.71730933152699
C            2.44343637892467        0.05371068110101        0.15068367761595
H            1.36460225247917        0.04559309083962        0.38654550212370
O            0.87399262958380        2.02269115343383        1.33280168647310
C            2.04517166759028        2.24102914068161        1.17118146948902
H            2.52911241996781        3.18666936813149        1.46937842765593
N            5.19718639043924        1.00903691808739       -0.04562636523947
H            2.82134226789660       -1.04995445473855        1.70119863161276
H            4.93259012497286        0.08681092854034       -0.38239508085599
C            4.28750383611815        1.69709621031228        0.44887808034635
N            2.92983989900923        1.37078717526549        0.60748973841883
H            4.52018243641817        2.69050332005810        0.82303554131126

          :  Hamiltonian                  GFN2-xTB          :
         :: gradient norm              0.000043180572 Eh/a0 ::
         :: HOMO-LUMO gap              3.394949835102 eV    ::
         :: SCC energy               -27.756202012156 Eh    ::
         :: -> dispersion             -0.009605027535 Eh    ::
         :: repulsion energy           0.252671035967 Eh    ::

    * Orbital Energies and Occupations

         #    Occupation            Energy/Eh            Energy/eV
      -------------------------------------------------------------
         1        2.0000           -0.7495780             -20.3971
       ...           ...                  ...                  ...
        11        2.0000           -0.5982747             -16.2799
        12        2.0000           -0.5722700             -15.5723
        13        2.0000           -0.5620786             -15.2949
        14        2.0000           -0.5616913             -15.2844
        15        2.0000           -0.5453267             -14.8391
        16        2.0000           -0.5163453             -14.0505
        17        2.0000           -0.5112443             -13.9117
        18        2.0000           -0.4971588             -13.5284
        19        2.0000           -0.4886615             -13.2972
        20        2.0000           -0.4691844             -12.7672
        21        2.0000           -0.4412648             -12.0074
        22        2.0000           -0.4327616             -11.7760
        23        2.0000           -0.3998483             -10.8804 (HOMO)
        24                         -0.2750861              -7.4855 (LUMO)
        25                         -0.2155693              -5.8659
        26                         -0.0342566              -0.9322
        27                         -0.0001253              -0.0034
        28                          0.0792239               2.1558
        29                          0.0924863               2.5167
        30                          0.1092759               2.9735
        31                          0.1166174               3.1733
        32                          0.1459066               3.9703
        33                          0.1500288               4.0825
        34                          0.2060788               5.6077
       ...                                ...                  ...
        38                          0.6260463              17.0356
      -------------------------------------------------------------
                  HL-Gap            0.1247621 Eh            3.3949 eV

     #   Z          covCN         q      C6AA      α(0)
     1   8 O        1.658    -0.412    21.073     6.197
     2   8 O        1.658    -0.412    21.073     6.197
     3   1 H        0.805     0.318     0.670     1.286
     4   6 C        3.546     0.325    16.588     5.960
     5   1 H        0.923     0.032     2.552     2.498
     6   8 O        0.857    -0.380    21.276     6.184
     7   6 C        2.710     0.252    22.759     7.809
     8   1 H        0.923     0.028     2.622     2.532
     9   7 N        1.773    -0.300    28.580     7.916
    10   1 H        0.805     0.318     0.670     1.286
    11   1 H        0.860     0.191     1.154     1.683
    12   6 C        2.762     0.141    24.902     8.172
    13   7 N        2.730    -0.154    24.338     7.327
    14   1 H        0.925     0.052     2.293     2.368

Wiberg/Mayer (AO) data.
largest (>0.10) Wiberg bond orders for each atom

     #   Z sym  total        # sym  WBO       # sym  WBO       # sym  WBO
 ---------------------------------------------------------------------------
     1   8 O    2.007 --     4 C    1.018    10 H    0.883
     2   8 O    2.007 --     4 C    1.018     3 H    0.883
     3   1 H    0.899 --     2 O    0.883
     4   6 C    3.934 --     2 O    1.018     1 O    1.018     5 H    0.944
                            13 N    0.912
     5   1 H    0.999 --     4 C    0.944
     6   8 O    2.062 --     7 C    1.771    13 N    0.170
     7   6 C    3.945 --     6 O    1.771    13 N    1.197     8 H    0.920
     8   1 H    0.999 --     7 C    0.920
     9   7 N    3.059 --    12 C    1.929    11 H    0.926    13 N    0.115
    10   1 H    0.899 --     1 O    0.883
    11   1 H    0.964 --     9 N    0.926
    12   6 C    3.957 --     9 N    1.929    13 N    1.049    14 H    0.941
    13   7 N    3.534 --     7 C    1.197    12 C    1.049     4 C    0.912
                             6 O    0.170     9 N    0.115
    14   1 H    0.997 --    12 C    0.941
 ---------------------------------------------------------------------------

molecular dipole:
                 x           y           z       tot (Debye)
 q only:        0.059       0.056       0.015
   full:       -0.478       0.296       0.237       1.551

 projected vibrational frequencies (cm⁻¹)
eigval :       -0.00    -0.00    -0.00     0.00     0.00     0.00
eigval :       49.85   117.57   152.46   194.26   196.97   233.63
eigval :      255.15   265.17   424.84   506.69   511.56   555.71
eigval :      717.28   780.11   834.53   922.69  1018.42  1046.94
eigval :     1078.15  1128.07  1178.92  1208.41  1275.39  1282.94
eigval :     1310.21  1343.37  1362.29  1390.10  1738.05  1767.68
eigval :     2808.70  2851.57  2994.97  3369.98  3558.20  3561.50

   temp. (K)  partition function   enthalpy   heat capacity  entropy
                                   cal/mol     cal/K/mol   cal/K/mol   J/K/mol
 298.15  VIB   269.                 3887.350     24.328     23.496
         ROT  0.325E+06              888.752      2.981     28.204
         INT  0.874E+08             4776.102     27.309     51.700
         TR   0.124E+28             1481.254      4.968     40.195
         TOT                        6257.3560    32.2773    91.8954   384.4904

       T/K    H(0)-H(T)+PV         H(T)/Eh          T*S/Eh         G(T)/Eh
   ------------------------------------------------------------------------
    298.15    0.997173E-02    0.110194E+00    0.436625E-01    0.665311E-01
   ------------------------------------------------------------------------

         :::::::::::::::::::::::::::::::::::::::::::::::::::::
         ::                  THERMODYNAMIC                  ::
         :::::::::::::::::::::::::::::::::::::::::::::::::::::
         :: total free energy         -27.436999905102 Eh   ::
         ::.................................................::
         :: total energy              -27.503530976190 Eh   ::
         :: zero point energy           0.100221813634 Eh   ::
         :: G(RRHO) w/o ZPVE           -0.033690742546 Eh   ::
         :: G(RRHO) contrib.            0.066531071088 Eh   ::
         :::::::::::::::::::::::::::::::::::::::::::::::::::::

           -------------------------------------------------
          | TOTAL ENERGY              -27.503530976190 Eh   |
          | TOTAL ENTHALPY            -27.393337430988 Eh   |
          | TOTAL FREE ENERGY         -27.436999905102 Eh   |
          | GRADIENT NORM               0.000043204962 Eh/α |
          | HOMO-LUMO GAP               3.394949982290 eV   |
           -------------------------------------------------

 * finished run on 2025/01/10 at 14:26:59.378
normal termination of xtb
