   * xtb version 6.7.1 (edcfbbe) compiled by 'albert@albert-system' on 2024-07-22

   ID    Z sym.   atoms
    1    8 O      1, 10
    2    1 H      2, 3, 6, 9, 11, 12, 15
    3    6 C      4, 7, 13
    4    7 N      5, 8, 14

          program call               : /home/adpal/xtb-dist/bin/xtb ./results/p_{0,62}_coordinatesxTB.xyz --ohess --uhf 1 --parallel 8
          :  Hamiltonian                  GFN2-xTB          :
 * total energy  :   -26.8665182 Eh     change        0.2131628E-13 Eh
   *** GEOMETRY OPTIMIZATION CONVERGED AFTER 1 ITERATIONS ***

 final structure:
================
15
 xtb: 6.7.1 (edcfbbe)
O            3.54870681741404        0.25302254060835       -1.18629588599631
H            3.32088090324887       -0.79442831713775        1.82844969504413
H            4.42378256669433       -1.19290905406874        0.67027712815964
C            2.85786347084139       -0.10844204419706       -0.04053257057884
N            3.79602804449040       -0.46754102749797        0.99645030919930
H            2.17335144879276       -0.91446478691594       -0.36228410199651
C            0.76631664521243        1.19342181010913        0.18113186020350
N            2.05236132006995        0.97001845477781        0.48109258926071
H            0.30318864215275        0.42657881048866       -0.44717567270208
O           -1.46445289448017        2.91286801661482       -0.76872981864522
H            2.53560465411175        1.68338739694803        1.01008471036995
H            4.22669031668308        0.90160189382634       -0.95451339394926
C           -1.09009472211124        2.65006773387356        0.34681846246493
N            0.12389957591795        2.16368720274098        0.69301025773720
H           -1.68138678903837        2.90669136982971        1.24742643142887

          :  Hamiltonian                  GFN2-xTB          :
         :: gradient norm              0.000044577376 Eh/a0 ::
         :: HOMO-LUMO gap              3.551917240923 eV    ::
         :: SCC energy               -27.144456714911 Eh    ::
         :: -> dispersion             -0.008738708287 Eh    ::
         :: repulsion energy           0.277938479679 Eh    ::

    * Orbital Energies and Occupations

         #    Occupation            Energy/Eh            Energy/eV
      -------------------------------------------------------------
         1        2.0000           -0.7340907             -19.9756
       ...           ...                  ...                  ...
        11        2.0000           -0.5723782             -15.5752
        12        2.0000           -0.5521686             -15.0253
        13        2.0000           -0.5410136             -14.7217
        14        2.0000           -0.5327016             -14.4955
        15        2.0000           -0.5250063             -14.2861
        16        2.0000           -0.5118152             -13.9272
        17        2.0000           -0.5082705             -13.8307
        18        2.0000           -0.4991202             -13.5818
        19        2.0000           -0.4706434             -12.8069
        20        2.0000           -0.4214029             -11.4670
        21        2.0000           -0.4154058             -11.3038
        22        2.0000           -0.4062896             -11.0557
        23        2.0000           -0.3879844             -10.5576 (HOMO)
        24                         -0.2574538              -7.0057 (LUMO)
        25                         -0.1937407              -5.2720
        26                         -0.0227640              -0.6194
        27                          0.0255085               0.6941
        28                          0.0564156               1.5351
        29                          0.0727167               1.9787
        30                          0.1031929               2.8080
        31                          0.1359216               3.6986
        32                          0.1470169               4.0005
        33                          0.1807066               4.9173
        34                          0.2100452               5.7156
       ...                                ...                  ...
        39                          0.6822448              18.5648
      -------------------------------------------------------------
                  HL-Gap            0.1305305 Eh            3.5519 eV

     #   Z          covCN         q      C6AA      α(0)
     1   8 O        1.658    -0.431    21.454     6.253
     2   1 H        0.860     0.161     1.331     1.807
     3   1 H        0.860     0.171     1.269     1.765
     4   6 C        3.596     0.250    17.256     6.013
     5   7 N        2.637    -0.369    29.517     8.069
     6   1 H        0.922     0.038     2.482     2.464
     7   6 C        2.776     0.154    24.644     8.131
     8   7 N        2.702    -0.174    24.757     7.390
     9   1 H        0.924     0.041     2.429     2.437
    10   8 O        0.857    -0.388    21.447     6.209
    11   1 H        0.860     0.203     1.090     1.635
    12   1 H        0.805     0.316     0.675     1.290
    13   6 C        2.713     0.273    22.384     7.744
    14   7 N        1.837    -0.254    27.463     7.766
    15   1 H        0.922     0.009     2.913     2.669

Wiberg/Mayer (AO) data.
largest (>0.10) Wiberg bond orders for each atom

     #   Z sym  total        # sym  WBO       # sym  WBO       # sym  WBO
 ---------------------------------------------------------------------------
     1   8 O    1.997 --     4 C    1.009    12 H    0.880
     2   1 H    0.974 --     5 N    0.958
     3   1 H    0.970 --     5 N    0.954
     4   6 C    3.951 --     5 N    1.010     1 O    1.009     8 N    0.971
                             6 H    0.941
     5   7 N    3.010 --     4 C    1.010     2 H    0.958     3 H    0.954
     6   1 H    0.998 --     4 C    0.941
     7   6 C    3.962 --    14 N    1.653     8 N    1.282     9 H    0.933
     8   7 N    3.455 --     7 C    1.282     4 C    0.971    11 H    0.923
                            14 N    0.159
     9   1 H    0.998 --     7 C    0.933
    10   8 O    2.049 --    13 C    1.770    14 N    0.158
    11   1 H    0.959 --     8 N    0.923
    12   1 H    0.900 --     1 O    0.880
    13   6 C    3.943 --    10 O    1.770    14 N    1.214    15 H    0.918
    14   7 N    3.242 --     7 C    1.653    13 C    1.214     8 N    0.159
                            10 O    0.158
    15   1 H    0.999 --    13 C    0.918
 ---------------------------------------------------------------------------

molecular dipole:
                 x           y           z       tot (Debye)
 q only:        1.902      -1.136       1.106
   full:        1.823      -1.484       1.257       6.776

 projected vibrational frequencies (cm⁻¹)
eigval :       -0.00    -0.00    -0.00     0.00     0.00     0.00
eigval :       29.40    47.21   116.95   153.21   180.36   241.47
eigval :      322.33   345.78   405.19   438.59   527.47   564.99
eigval :      590.99   712.03   901.56   918.52   931.29   978.80
eigval :     1015.32  1093.46  1109.04  1176.39  1200.35  1225.54
eigval :     1277.51  1312.12  1337.87  1370.08  1451.58  1524.12
eigval :     1722.61  1735.53  2761.66  2823.71  2901.57  3418.06
eigval :     3425.02  3452.35  3509.38

   temp. (K)  partition function   enthalpy   heat capacity  entropy
                                   cal/mol     cal/K/mol   cal/K/mol   J/K/mol
 298.15  VIB  0.118E+04             4095.983     24.312     25.422
         ROT  0.439E+06              888.752      2.981     28.800
         INT  0.516E+09             4984.736     27.293     54.222
         TR   0.123E+28             1481.254      4.968     40.170
         TOT                        6465.9896    32.2614    94.3923   394.9373

       T/K    H(0)-H(T)+PV         H(T)/Eh          T*S/Eh         G(T)/Eh
   ------------------------------------------------------------------------
    298.15    0.103042E-01    0.122503E+00    0.448488E-01    0.776537E-01
   ------------------------------------------------------------------------

         :::::::::::::::::::::::::::::::::::::::::::::::::::::
         ::                  THERMODYNAMIC                  ::
         :::::::::::::::::::::::::::::::::::::::::::::::::::::
         :: total free energy         -26.788864497182 Eh   ::
         ::.................................................::
         :: total energy              -26.866518235231 Eh   ::
         :: zero point energy           0.112198344997 Eh   ::
         :: G(RRHO) w/o ZPVE           -0.034544606949 Eh   ::
         :: G(RRHO) contrib.            0.077653738049 Eh   ::
         :::::::::::::::::::::::::::::::::::::::::::::::::::::

           -------------------------------------------------
          | TOTAL ENERGY              -26.866518235231 Eh   |
          | TOTAL ENTHALPY            -26.744015679901 Eh   |
          | TOTAL FREE ENERGY         -26.788864497182 Eh   |
          | GRADIENT NORM               0.000044580865 Eh/α |
          | HOMO-LUMO GAP               3.551916826335 eV   |
           -------------------------------------------------

 * finished run on 2025/01/10 at 14:26:46.847
normal termination of xtb
