   * xtb version 6.7.1 (edcfbbe) compiled by 'albert@albert-system' on 2024-07-22

   ID    Z sym.   atoms
    1    8 O      1, 4, 13
    2    1 H      2, 3, 5, 6, 9, 12, 14, 15, 18
    3    6 C      7, 10, 16
    4    7 N      8, 11, 17

          program call               : /home/adpal/xtb-dist/bin/xtb ./results/p_{0,38}_coordinatesxTB.xyz --ohess --uhf 1 --parallel 8
          :  Hamiltonian                  GFN2-xTB          :
 * total energy  :   -31.9580397 Eh     change       -0.1421085E-13 Eh
   *** GEOMETRY OPTIMIZATION CONVERGED AFTER 1 ITERATIONS ***

 final structure:
================
18
 xtb: 6.7.1 (edcfbbe)
O            2.84918861117729        0.51774866391635        0.67458247595136
H            4.91293757412207        1.11567177908983        2.06673787835570
H            1.70843347912230       -2.45138470411777        1.21657270623037
O            2.58125399894074        2.32598116196507        1.97233986512252
H            4.20443396025732        0.94437693837123        3.54611120744943
H            3.05928109790685        2.73220891875688        1.23741234582935
C            2.88886830750618        0.97558558325372        2.00512231798989
N            4.16613084914802        0.65587401272200        2.57753833493525
H            2.11090340738808        0.48929643960555        2.61245101102546
C            0.46095794125048       -1.03701341734893        0.52855679997624
N           -0.56446225233522       -1.75861235514061        0.66886184272375
H            0.49465791192166       -0.01217567811384        0.13355239580375
O            3.22660172839162       -1.12786796488877       -0.80827644537937
H           -1.43314078699788       -1.31791094336621        0.38700151417236
H            2.61253754329715       -0.64250191402090       -1.37515970183172
C            2.91657759969581       -0.87337098294176        0.50990274406538
N            1.68157166213584       -1.48336917095549        0.93495879007982
H            3.73078736707151       -1.29533636678619        1.11557391749941

          :  Hamiltonian                  GFN2-xTB          :
         :: gradient norm              0.000026432604 Eh/a0 ::
         :: HOMO-LUMO gap              4.489518611902 eV    ::
         :: SCC energy               -32.234798353692 Eh    ::
         :: -> dispersion             -0.011895137363 Eh    ::
         :: repulsion energy           0.276758623362 Eh    ::

    * Orbital Energies and Occupations

         #    Occupation            Energy/Eh            Energy/eV
      -------------------------------------------------------------
         1        2.0000           -0.7434447             -20.2302
       ...           ...                  ...                  ...
        15        2.0000           -0.5397116             -14.6863
        16        2.0000           -0.5307922             -14.4436
        17        2.0000           -0.5195119             -14.1366
        18        2.0000           -0.5076695             -13.8144
        19        2.0000           -0.4969075             -13.5215
        20        2.0000           -0.4916301             -13.3779
        21        2.0000           -0.4817308             -13.1086
        22        2.0000           -0.4655367             -12.6679
        23        2.0000           -0.4651463             -12.6573
        24        2.0000           -0.4436637             -12.0727
        25        2.0000           -0.4099164             -11.1544
        26        2.0000           -0.3947715             -10.7423
        27        2.0000           -0.3717463             -10.1157 (HOMO)
        28                         -0.2067595              -5.6262 (LUMO)
        29                         -0.0029985              -0.0816
        30                          0.0166536               0.4532
        31                          0.0420125               1.1432
        32                          0.0492473               1.3401
        33                          0.0709499               1.9306
        34                          0.1049705               2.8564
        35                          0.1226689               3.3380
        36                          0.1357043               3.6927
        37                          0.1408161               3.8318
        38                          0.1622049               4.4138
       ...                                ...                  ...
        45                          0.5875089              15.9869
      -------------------------------------------------------------
                  HL-Gap            0.1649868 Eh            4.4895 eV

     #   Z          covCN         q      C6AA      α(0)
     1   8 O        1.703    -0.352    19.932     6.028
     2   1 H        0.860     0.166     1.294     1.782
     3   1 H        0.860     0.195     1.134     1.668
     4   8 O        1.657    -0.441    21.659     6.283
     5   1 H        0.860     0.170     1.271     1.766
     6   1 H        0.805     0.316     0.674     1.289
     7   6 C        3.555     0.320    16.577     5.944
     8   7 N        2.629    -0.382    29.874     8.118
     9   1 H        0.923     0.038     2.479     2.462
    10   6 C        2.751     0.151    24.699     8.138
    11   7 N        1.786    -0.368    30.423     8.169
    12   1 H        0.923     0.005     2.975     2.698
    13   8 O        1.657    -0.424    21.315     6.232
    14   1 H        0.860     0.141     1.460     1.893
    15   1 H        0.805     0.320     0.663     1.279
    16   6 C        3.563     0.311    16.632     5.943
    17   7 N        2.694    -0.223    25.864     7.553
    18   1 H        0.923     0.055     2.263     2.352

Wiberg/Mayer (AO) data.
largest (>0.10) Wiberg bond orders for each atom

     #   Z sym  total        # sym  WBO       # sym  WBO       # sym  WBO
 ---------------------------------------------------------------------------
     1   8 O    2.084 --    16 C    0.956     7 C    0.945
     2   1 H    0.972 --     8 N    0.955
     3   1 H    0.962 --    17 N    0.931
     4   8 O    1.988 --     7 C    1.000     6 H    0.879
     5   1 H    0.971 --     8 N    0.955
     6   1 H    0.900 --     4 O    0.879
     7   6 C    3.930 --     8 N    1.016     4 O    1.000     9 H    0.947
                             1 O    0.945
     8   7 N    3.023 --     7 C    1.016     5 H    0.955     2 H    0.955
     9   1 H    0.999 --     7 C    0.947
    10   6 C    3.963 --    11 N    1.806    17 N    1.196    12 H    0.935
    11   7 N    2.990 --    10 C    1.806    14 H    0.953    17 N    0.162
    12   1 H    1.000 --    10 C    0.935
    13   8 O    2.004 --    16 C    1.015    15 H    0.877
    14   1 H    0.980 --    11 N    0.953
    15   1 H    0.897 --    13 O    0.877
    16   6 C    3.933 --    13 O    1.015    17 N    0.976     1 O    0.956
                            18 H    0.946
    17   7 N    3.370 --    10 C    1.196    16 C    0.976     3 H    0.931
                            11 N    0.162
    18   1 H    0.997 --    16 C    0.946
 ---------------------------------------------------------------------------

molecular dipole:
                 x           y           z       tot (Debye)
 q only:        0.738       0.321       0.053
   full:        0.782       0.918      -0.112       3.079

 projected vibrational frequencies (cm⁻¹)
eigval :       -0.00    -0.00    -0.00    -0.00     0.00     0.00
eigval :       44.96    54.85   104.06   108.90   174.00   200.67
eigval :      266.61   304.48   310.94   388.74   424.17   456.45
eigval :      500.96   530.15   570.43   586.44   733.82   768.12
eigval :      900.60   924.41   970.30   982.33  1048.62  1059.10
eigval :     1089.38  1099.30  1108.65  1115.74  1191.90  1233.17
eigval :     1257.57  1288.23  1301.55  1320.61  1332.56  1343.08
eigval :     1410.80  1533.41  1724.19  2841.79  2904.98  2915.73
eigval :     3392.41  3400.87  3459.17  3459.71  3509.72  3512.70

   temp. (K)  partition function   enthalpy   heat capacity  entropy
                                   cal/mol     cal/K/mol   cal/K/mol   J/K/mol
 298.15  VIB  0.214E+04             4919.206     30.825     30.369
         ROT  0.604E+06              888.752      2.981     29.434
         INT  0.129E+10             5807.958     33.806     59.803
         TR   0.152E+28             1481.254      4.968     40.597
         TOT                        7289.2120    38.7740   100.4000   420.0734

       T/K    H(0)-H(T)+PV         H(T)/Eh          T*S/Eh         G(T)/Eh
   ------------------------------------------------------------------------
    298.15    0.116161E-01    0.150952E+00    0.477033E-01    0.103249E+00
   ------------------------------------------------------------------------

         :::::::::::::::::::::::::::::::::::::::::::::::::::::
         ::                  THERMODYNAMIC                  ::
         :::::::::::::::::::::::::::::::::::::::::::::::::::::
         :: total free energy         -31.854791053053 Eh   ::
         ::.................................................::
         :: total energy              -31.958039730331 Eh   ::
         :: zero point energy           0.139335834752 Eh   ::
         :: G(RRHO) w/o ZPVE           -0.036087157474 Eh   ::
         :: G(RRHO) contrib.            0.103248677278 Eh   ::
         :::::::::::::::::::::::::::::::::::::::::::::::::::::

           -------------------------------------------------
          | TOTAL ENERGY              -31.958039730331 Eh   |
          | TOTAL ENTHALPY            -31.807087796844 Eh   |
          | TOTAL FREE ENERGY         -31.854791053053 Eh   |
          | GRADIENT NORM               0.000026434345 Eh/α |
          | HOMO-LUMO GAP               4.489518629148 eV   |
           -------------------------------------------------

 * finished run on 2025/01/10 at 14:25:27.891
normal termination of xtb
