   * xtb version 6.7.1 (edcfbbe) compiled by 'albert@albert-system' on 2024-07-22

   ID    Z sym.   atoms
    1    8 O      1, 4
    2    6 C      2, 6
    3    1 H      3, 5, 8
    4    7 N      7

          program call               : /home/adpal/xtb-dist/bin/xtb ./results/p_{0,52}_coordinatesxTB.xyz --ohess --uhf 1 --parallel 8
          :  Hamiltonian                  GFN2-xTB          :
 * total energy  :   -16.8243274 Eh     change        0.1065814E-13 Eh
   *** GEOMETRY OPTIMIZATION CONVERGED AFTER 1 ITERATIONS ***

 final structure:
================
8
 xtb: 6.7.1 (edcfbbe)
O            1.99416774244448        0.61793703236009        1.17645950505740
C            1.44375474424984       -0.38182326405288        0.83594390539614
H            0.52174723428164       -0.78137037628082        1.28575606487146
O            1.82203367640951       -1.21145130547085       -0.14370409124015
H            4.12954447591007       -1.45873854015234       -2.26778098766649
C            2.94945024565227       -0.92425212001940       -0.85491842796868
N            3.28605147029121       -1.70939709906776       -1.76436428102628
H            3.44677041076097        0.00023567268394       -0.53006168742340

          :  Hamiltonian                  GFN2-xTB          :
         :: gradient norm              0.000043613188 Eh/a0 ::
         :: HOMO-LUMO gap              3.257331562802 eV    ::
         :: SCC energy               -16.988881530244 Eh    ::
         :: -> dispersion             -0.003484977970 Eh    ::
         :: repulsion energy           0.164554084998 Eh    ::

    * Orbital Energies and Occupations

         #    Occupation            Energy/Eh            Energy/eV
      -------------------------------------------------------------
         1        2.0000           -0.7859261             -21.3861
         2        2.0000           -0.7576892             -20.6178
         3        2.0000           -0.7199497             -19.5908
         4        2.0000           -0.6622726             -18.0214
         5        2.0000           -0.6435585             -17.5121
         6        2.0000           -0.6255526             -17.0222
         7        2.0000           -0.6171940             -16.7947
         8        2.0000           -0.5716649             -15.5558
         9        2.0000           -0.5471854             -14.8897
        10        2.0000           -0.5404802             -14.7072
        11        2.0000           -0.5244274             -14.2704
        12        2.0000           -0.4752188             -12.9314
        13        2.0000           -0.4611654             -12.5489
        14        2.0000           -0.4135375             -11.2529 (HOMO)
        15                         -0.2938328              -7.9956 (LUMO)
        16                         -0.2361525              -6.4260
        17                          0.0144308               0.3927
        18                          0.1053001               2.8654
        19                          0.1351052               3.6764
        20                          0.1877675               5.1094
        21                          0.2646790               7.2023
        22                          0.5627407              15.3130
        23                          0.6444576              17.5366
      -------------------------------------------------------------
                  HL-Gap            0.1197047 Eh            3.2573 eV

     #   Z          covCN         q      C6AA      α(0)
     1   8 O        0.856    -0.337    20.469     6.066
     2   6 C        2.673     0.336    21.293     7.551
     3   1 H        0.923     0.052     2.291     2.367
     4   8 O        1.710    -0.195    17.260     5.609
     5   1 H        0.860     0.176     1.236     1.742
     6   6 C        2.727     0.223    23.303     7.903
     7   7 N        1.774    -0.291    28.356     7.885
     8   1 H        0.923     0.036     2.498     2.472

Wiberg/Mayer (AO) data.
largest (>0.10) Wiberg bond orders for each atom

     #   Z sym  total        # sym  WBO       # sym  WBO       # sym  WBO
 ---------------------------------------------------------------------------
     1   8 O    2.105 --     2 C    1.843     4 O    0.165
     2   6 C    3.912 --     1 O    1.843     4 O    1.114     3 H    0.917
     3   1 H    0.997 --     2 C    0.917
     4   8 O    2.430 --     2 C    1.114     6 C    1.035     1 O    0.165
     5   1 H    0.969 --     7 N    0.941
     6   6 C    3.916 --     7 N    1.916     4 O    1.035     8 H    0.931
     7   7 N    3.040 --     6 C    1.916     5 H    0.941
     8   1 H    0.999 --     6 C    0.931
 ---------------------------------------------------------------------------

molecular dipole:
                 x           y           z       tot (Debye)
 q only:        0.071      -0.201      -0.220
   full:        0.164       0.049      -0.098       0.502

 projected vibrational frequencies (cm⁻¹)
eigval :       -0.00    -0.00     0.00     0.00     0.00     0.00
eigval :      102.04   234.77   285.03   479.13   761.06   800.19
eigval :      938.19   954.47   976.45  1125.90  1206.27  1333.28
eigval :     1346.85  1740.62  1792.21  2857.40  2862.45  3395.94

   temp. (K)  partition function   enthalpy   heat capacity  entropy
                                   cal/mol     cal/K/mol   cal/K/mol   J/K/mol
 298.15  VIB   6.15                 1430.126     10.107      8.376
         ROT  0.607E+05              888.752      2.981     24.867
         INT  0.373E+06             2318.879     13.088     33.243
         TR   0.604E+27             1481.254      4.968     38.764
         TOT                        3800.1324    18.0559    72.0075   301.2794

       T/K    H(0)-H(T)+PV         H(T)/Eh          T*S/Eh         G(T)/Eh
   ------------------------------------------------------------------------
    298.15    0.605590E-02    0.588918E-01    0.342131E-01    0.246787E-01
   ------------------------------------------------------------------------

         :::::::::::::::::::::::::::::::::::::::::::::::::::::
         ::                  THERMODYNAMIC                  ::
         :::::::::::::::::::::::::::::::::::::::::::::::::::::
         :: total free energy         -16.799648769558 Eh   ::
         ::.................................................::
         :: total energy              -16.824327445246 Eh   ::
         :: zero point energy           0.052835870820 Eh   ::
         :: G(RRHO) w/o ZPVE           -0.028157195132 Eh   ::
         :: G(RRHO) contrib.            0.024678675688 Eh   ::
         :::::::::::::::::::::::::::::::::::::::::::::::::::::

           -------------------------------------------------
          | TOTAL ENERGY              -16.824327445246 Eh   |
          | TOTAL ENTHALPY            -16.765435677910 Eh   |
          | TOTAL FREE ENERGY         -16.799648769558 Eh   |
          | GRADIENT NORM               0.000043609737 Eh/α |
          | HOMO-LUMO GAP               3.257330908588 eV   |
           -------------------------------------------------

 * finished run on 2025/01/10 at 14:26:20.083
normal termination of xtb
