   * xtb version 6.7.1 (edcfbbe) compiled by 'albert@albert-system' on 2024-07-22

   ID    Z sym.   atoms
    1    6 C      1, 7, 13
    2    7 N      2, 8, 14
    3    1 H      3, 5, 6, 9, 11, 12, 15
    4    8 O      4, 10

          program call               : /home/adpal/xtb-dist/bin/xtb ./results/p_{0,24}_coordinatesxTB.xyz --ohess --uhf 1 --parallel 8
          :  Hamiltonian                  GFN2-xTB          :
 * total energy  :   -26.8650367 Eh     change       -0.3907985E-13 Eh
   *** GEOMETRY OPTIMIZATION CONVERGED AFTER 1 ITERATIONS ***

 final structure:
================
15
 xtb: 6.7.1 (edcfbbe)
C            6.04404020023672       -3.40722379673315        0.64794379551750
N            6.56040608772360       -4.53685714321987        0.42651533449131
H            5.70646174797721       -3.01578028907221        1.61884139857957
O            3.88508334985341       -1.21575905266450       -0.32499571412397
H            6.67411157161351       -5.11934984918505        1.24812309383195
H            3.62341704559434       -1.82012995031505       -1.03109124572759
C            5.30835350690546       -1.22143748027683       -0.22620894885788
N            5.81982840303561       -2.54258780996453       -0.37145477157230
H            5.51393546292429       -0.84897088627601        0.79085633419552
O            4.27055698516792        1.19050573056801       -1.43840555805241
H            6.19960373263261       -2.79684061563958       -1.27085884559913
H            3.75690717491851        0.60447354116202       -0.84518379689858
C            5.46797903776203        0.66167245505130       -1.64996965573434
N            5.97724975998049       -0.38738061959399       -1.17791440872462
H            6.06918593367393        1.24498576615970       -2.33850701132449

          :  Hamiltonian                  GFN2-xTB          :
         :: gradient norm              0.000044608008 Eh/a0 ::
         :: HOMO-LUMO gap              3.605976760321 eV    ::
         :: SCC energy               -27.141287715707 Eh    ::
         :: -> dispersion             -0.009260648427 Eh    ::
         :: repulsion energy           0.276251032787 Eh    ::

    * Orbital Energies and Occupations

         #    Occupation            Energy/Eh            Energy/eV
      -------------------------------------------------------------
         1        2.0000           -0.7408576             -20.1598
       ...           ...                  ...                  ...
        11        2.0000           -0.5731501             -15.5962
        12        2.0000           -0.5598103             -15.2332
        13        2.0000           -0.5546169             -15.0919
        14        2.0000           -0.5274592             -14.3529
        15        2.0000           -0.5153169             -14.0225
        16        2.0000           -0.4989810             -13.5780
        17        2.0000           -0.4938345             -13.4379
        18        2.0000           -0.4910170             -13.3613
        19        2.0000           -0.4585512             -12.4778
        20        2.0000           -0.4398766             -11.9697
        21        2.0000           -0.4084461             -11.1144
        22        2.0000           -0.3923559             -10.6765
        23        2.0000           -0.3720997             -10.1253 (HOMO)
        24                         -0.2395825              -6.5194 (LUMO)
        25                         -0.2044518              -5.5634
        26                          0.0078355               0.2132
        27                          0.0274020               0.7456
        28                          0.0538713               1.4659
        29                          0.0914623               2.4888
        30                          0.0959281               2.6103
        31                          0.1419357               3.8623
        32                          0.1610351               4.3820
        33                          0.1926427               5.2421
        34                          0.2223126               6.0494
       ...                                ...                  ...
        39                          0.5983659              16.2824
      -------------------------------------------------------------
                  HL-Gap            0.1325172 Eh            3.6060 eV

     #   Z          covCN         q      C6AA      α(0)
     1   6 C        2.750     0.148    24.775     8.150
     2   7 N        1.787    -0.369    30.448     8.173
     3   1 H        0.923    -0.002     3.089     2.749
     4   8 O        1.654    -0.472    22.292     6.374
     5   1 H        0.860     0.141     1.461     1.893
     6   1 H        0.805     0.307     0.701     1.316
     7   6 C        3.620     0.255    17.070     5.957
     8   7 N        2.706    -0.192    25.160     7.450
     9   1 H        0.923     0.049     2.334     2.389
    10   8 O        1.658    -0.366    20.200     6.067
    11   1 H        0.860     0.197     1.122     1.659
    12   1 H        0.803     0.339     0.615     1.232
    13   6 C        2.716     0.220    23.362     7.912
    14   7 N        1.829    -0.322    29.204     8.008
    15   1 H        0.925     0.068     2.113     2.273

Wiberg/Mayer (AO) data.
largest (>0.10) Wiberg bond orders for each atom

     #   Z sym  total        # sym  WBO       # sym  WBO       # sym  WBO
 ---------------------------------------------------------------------------
     1   6 C    3.964 --     2 N    1.800     8 N    1.206     3 H    0.933
     2   7 N    2.989 --     1 C    1.800     5 H    0.953     8 N    0.166
     3   1 H    1.000 --     1 C    0.933
     4   8 O    1.988 --     7 C    0.942     6 H    0.887
     5   1 H    0.979 --     2 N    0.953
     6   1 H    0.906 --     4 O    0.887
     7   6 C    3.950 --    14 N    1.012     8 N    1.008     4 O    0.942
                             9 H    0.936
     8   7 N    3.398 --     1 C    1.206     7 C    1.008    11 H    0.927
                             2 N    0.166
     9   1 H    0.998 --     7 C    0.936
    10   8 O    2.219 --    13 C    1.170    12 H    0.830    14 N    0.184
    11   1 H    0.961 --     8 N    0.927
    12   1 H    0.885 --    10 O    0.830
    13   6 C    3.939 --    14 N    1.777    10 O    1.170    15 H    0.943
    14   7 N    3.055 --    13 C    1.777     7 C    1.012    10 O    0.184
    15   1 H    0.995 --    13 C    0.943
 ---------------------------------------------------------------------------

molecular dipole:
                 x           y           z       tot (Debye)
 q only:       -0.367       0.333      -0.283
   full:       -0.707       0.387       0.068       2.056

 projected vibrational frequencies (cm⁻¹)
eigval :       -0.00    -0.00    -0.00     0.00     0.00     0.00
eigval :       33.42    54.68    93.00   192.75   257.81   309.51
eigval :      350.11   388.22   449.07   519.76   543.52   611.70
eigval :      717.70   755.86   770.41   896.11   953.19   971.98
eigval :      998.39  1046.15  1109.66  1150.86  1200.21  1222.82
eigval :     1241.07  1285.69  1293.84  1324.24  1325.14  1421.90
eigval :     1721.43  1746.88  2820.79  2862.92  3040.03  3267.60
eigval :     3399.47  3456.35  3523.59

   temp. (K)  partition function   enthalpy   heat capacity  entropy
                                   cal/mol     cal/K/mol   cal/K/mol   J/K/mol
 298.15  VIB   567.                 3791.142     23.766     23.384
         ROT  0.358E+06              888.752      2.981     28.395
         INT  0.203E+09             4679.894     26.747     51.779
         TR   0.123E+28             1481.254      4.968     40.170
         TOT                        6161.1483    31.7149    91.9491   384.7150

       T/K    H(0)-H(T)+PV         H(T)/Eh          T*S/Eh         G(T)/Eh
   ------------------------------------------------------------------------
    298.15    0.981841E-02    0.122195E+00    0.436880E-01    0.785075E-01
   ------------------------------------------------------------------------

         :::::::::::::::::::::::::::::::::::::::::::::::::::::
         ::                  THERMODYNAMIC                  ::
         :::::::::::::::::::::::::::::::::::::::::::::::::::::
         :: total free energy         -26.786529207336 Eh   ::
         ::.................................................::
         :: total energy              -26.865036682919 Eh   ::
         :: zero point energy           0.112377045005 Eh   ::
         :: G(RRHO) w/o ZPVE           -0.033869569422 Eh   ::
         :: G(RRHO) contrib.            0.078507475583 Eh   ::
         :::::::::::::::::::::::::::::::::::::::::::::::::::::

           -------------------------------------------------
          | TOTAL ENERGY              -26.865036682919 Eh   |
          | TOTAL ENTHALPY            -26.742841223169 Eh   |
          | TOTAL FREE ENERGY         -26.786529207336 Eh   |
          | GRADIENT NORM               0.000044609486 Eh/α |
          | HOMO-LUMO GAP               3.605976412242 eV   |
           -------------------------------------------------

 * finished run on 2025/01/10 at 14:24:38.378
normal termination of xtb
