   * xtb version 6.7.1 (edcfbbe) compiled by 'albert@albert-system' on 2024-07-22

   ID    Z sym.   atoms
    1    8 O      1
    2    1 H      2, 3, 5-7, 10
    3    7 N      4, 9
    4    6 C      8

          program call               : /home/adpal/xtb-dist/bin/xtb ./results/p_{0,10}_coordinatesxTB.xyz --ohess --uhf 1 --parallel 8
          :  Hamiltonian                  GFN2-xTB          :
 * total energy  :   -15.0829712 Eh     change        0.7105427E-14 Eh
   *** GEOMETRY OPTIMIZATION CONVERGED AFTER 1 ITERATIONS ***

 final structure:
================
10
 xtb: 6.7.1 (edcfbbe)
O            1.02384143778970       -0.02417554657975       -0.06048766928164
H            2.56381315171638        0.65391800049634        1.87076163906808
H            0.70143339570579        0.88351458519586       -0.07615091272901
N            2.85944990414860       -1.34507179153678        0.08146830100473
H            3.85144553447686        1.09335669606485        0.94022527312015
H            3.85671068045476       -1.39457126996725        0.24653677526592
H            2.36150679121960       -1.79477257920155        0.84082559466315
C            2.41498021061980        0.01632652560319       -0.06616865225123
N            2.84700169228661        0.96858742018757        0.94757207332991
H            2.80308720158190        0.39150795973753       -1.03100242219006

          :  Hamiltonian                  GFN2-xTB          :
         :: gradient norm              0.000037288633 Eh/a0 ::
         :: HOMO-LUMO gap             11.255366234843 eV    ::
         :: SCC energy               -15.219048227287 Eh    ::
         :: -> dispersion             -0.003923357767 Eh    ::
         :: repulsion energy           0.136077015546 Eh    ::

    * Orbital Energies and Occupations

         #    Occupation            Energy/Eh            Energy/eV
      -------------------------------------------------------------
         1        2.0000           -0.6967929             -18.9607
         2        2.0000           -0.6538845             -17.7931
         3        2.0000           -0.6193526             -16.8534
         4        2.0000           -0.5950230             -16.1914
         5        2.0000           -0.5791128             -15.7585
         6        2.0000           -0.5534443             -15.0600
         7        2.0000           -0.5231211             -14.2349
         8        2.0000           -0.5127158             -13.9517
         9        2.0000           -0.4972161             -13.5299
        10        2.0000           -0.4712968             -12.8246
        11        2.0000           -0.4305435             -11.7157
        12        2.0000           -0.4041161             -10.9966
        13        2.0000           -0.3730776             -10.1520 (HOMO)
        14                          0.0405495               1.1034 (LUMO)
        15                          0.0530135               1.4426
        16                          0.0790048               2.1498
        17                          0.1168317               3.1792
        18                          0.1472143               4.0059
        19                          0.1701220               4.6293
        20                          0.2209013               6.0110
        21                          0.2300129               6.2590
        22                          0.2787006               7.5838
      -------------------------------------------------------------
                  HL-Gap            0.4136271 Eh           11.2554 eV

     #   Z          covCN         q      C6AA      α(0)
     1   8 O        1.659    -0.437    21.586     6.272
     2   1 H        0.860     0.151     1.395     1.850
     3   1 H        0.805     0.308     0.697     1.311
     4   7 N        2.631    -0.359    29.266     8.035
     5   1 H        0.860     0.143     1.452     1.887
     6   1 H        0.860     0.146     1.427     1.872
     7   1 H        0.860     0.162     1.323     1.802
     8   6 C        3.589     0.261    17.148     6.002
     9   7 N        2.629    -0.388    30.050     8.141
    10   1 H        0.922     0.014     2.819     2.626

Wiberg/Mayer (AO) data.
largest (>0.10) Wiberg bond orders for each atom

     #   Z sym  total        # sym  WBO       # sym  WBO       # sym  WBO
 ---------------------------------------------------------------------------
     1   8 O    1.977 --     8 C    1.000     3 H    0.887
     2   1 H    0.977 --     9 N    0.961
     3   1 H    0.905 --     1 O    0.887
     4   7 N    3.024 --     8 C    1.015     6 H    0.963     7 H    0.957
     5   1 H    0.980 --     9 N    0.965
     6   1 H    0.979 --     4 N    0.963
     7   1 H    0.974 --     4 N    0.957
     8   6 C    3.955 --     4 N    1.015     1 O    1.000     9 N    0.987
                            10 H    0.949
     9   7 N    3.010 --     8 C    0.987     5 H    0.965     2 H    0.961
    10   1 H    1.000 --     8 C    0.949
 ---------------------------------------------------------------------------

molecular dipole:
                 x           y           z       tot (Debye)
 q only:        0.356       0.303       0.307
   full:        0.715       0.368       0.716       2.738

 projected vibrational frequencies (cm⁻¹)
eigval :       -0.00     0.00     0.00     0.00     0.00     0.00
eigval :      193.78   247.68   322.79   409.07   445.49   546.78
eigval :      854.20   903.21   946.37  1022.69  1037.37  1119.42
eigval :     1190.17  1271.63  1320.05  1338.05  1525.41  1544.08
eigval :     2825.96  3388.45  3409.03  3443.46  3452.82  3555.56

   temp. (K)  partition function   enthalpy   heat capacity  entropy
                                   cal/mol     cal/K/mol   cal/K/mol   J/K/mol
 298.15  VIB   4.53                 1583.023     12.440      8.313
         ROT  0.414E+05              888.752      2.981     24.106
         INT  0.187E+06             2471.775     15.421     32.419
         TR   0.473E+27             1481.254      4.968     38.279
         TOT                        3953.0292    20.3888    70.6981   295.8008

       T/K    H(0)-H(T)+PV         H(T)/Eh          T*S/Eh         G(T)/Eh
   ------------------------------------------------------------------------
    298.15    0.629955E-02    0.890278E-01    0.335909E-01    0.554369E-01
   ------------------------------------------------------------------------

         :::::::::::::::::::::::::::::::::::::::::::::::::::::
         ::                  THERMODYNAMIC                  ::
         :::::::::::::::::::::::::::::::::::::::::::::::::::::
         :: total free energy         -15.027534356058 Eh   ::
         ::.................................................::
         :: total energy              -15.082971211741 Eh   ::
         :: zero point energy           0.082728246272 Eh   ::
         :: G(RRHO) w/o ZPVE           -0.027291390589 Eh   ::
         :: G(RRHO) contrib.            0.055436855683 Eh   ::
         :::::::::::::::::::::::::::::::::::::::::::::::::::::

           -------------------------------------------------
          | TOTAL ENERGY              -15.082971211741 Eh   |
          | TOTAL ENTHALPY            -14.993943412452 Eh   |
          | TOTAL FREE ENERGY         -15.027534356058 Eh   |
          | GRADIENT NORM               0.000037288188 Eh/α |
          | HOMO-LUMO GAP              11.255366265114 eV   |
           -------------------------------------------------

 * finished run on 2025/01/10 at 14:24:09.629
normal termination of xtb
