   * xtb version 6.7.1 (edcfbbe) compiled by 'albert@albert-system' on 2024-07-22

   ID    Z sym.   atoms
    1    6 C      1, 7
    2    7 N      2, 8
    3    1 H      3, 5, 6, 9
    4    8 O      4

          program call               : /home/adpal/xtb-dist/bin/xtb ./results/p_{0,5}_coordinatesxTB.xyz --ohess --uhf 1 --parallel 8
          :  Hamiltonian                  GFN2-xTB          :
 * total energy  :   -16.1959843 Eh     change       -0.7105427E-14 Eh
   *** GEOMETRY OPTIMIZATION CONVERGED AFTER 1 ITERATIONS ***

 final structure:
================
9
 xtb: 6.7.1 (edcfbbe)
C            0.99661068150782       -0.45731369128876        0.27528991686863
N            0.44673153328312       -0.79746560619331       -0.82124311810921
H            0.46991005691920        0.00011482732480        1.11821152053472
O            2.75414691756230       -1.57135735517611       -1.54143229423494
H           -0.54908982886231       -0.62218054890432       -0.89395356058489
H            1.76080609355095       -1.40496385417594       -1.63463167854314
C            3.08845735461266       -1.14947337421832       -0.35467584383600
N            2.33242798882271       -0.62496233328326        0.53613388946843
H            4.14093920260358       -1.26570806408475       -0.11064883156358

          :  Hamiltonian                  GFN2-xTB          :
         :: gradient norm              0.000024675251 Eh/a0 ::
         :: HOMO-LUMO gap              3.004218178429 eV    ::
         :: SCC energy               -16.376001973792 Eh    ::
         :: -> dispersion             -0.004409614280 Eh    ::
         :: repulsion energy           0.180017683554 Eh    ::

    * Orbital Energies and Occupations

         #    Occupation            Energy/Eh            Energy/eV
      -------------------------------------------------------------
         1        2.0000           -0.7384009             -20.0929
         2        2.0000           -0.6782892             -18.4572
         3        2.0000           -0.6589226             -17.9302
         4        2.0000           -0.6352605             -17.2863
         5        2.0000           -0.6049432             -16.4613
         6        2.0000           -0.5729086             -15.5896
         7        2.0000           -0.5607361             -15.2584
         8        2.0000           -0.5385958             -14.6559
         9        2.0000           -0.5301168             -14.4252
        10        2.0000           -0.5009691             -13.6321
        11        2.0000           -0.4969840             -13.5236
        12        2.0000           -0.4296015             -11.6901
        13        2.0000           -0.4063200             -11.0565
        14        2.0000           -0.3959299             -10.7738 (HOMO)
        15                         -0.2855269              -7.7696 (LUMO)
        16                         -0.1834409              -4.9917
        17                          0.0514123               1.3990
        18                          0.1094284               2.9777
        19                          0.1389678               3.7815
        20                          0.1929659               5.2509
        21                          0.2658057               7.2329
        22                          0.3515602               9.5664
        23                          0.4584450              12.4749
        24                          0.6031557              16.4127
      -------------------------------------------------------------
                  HL-Gap            0.1104030 Eh            3.0042 eV

     #   Z          covCN         q      C6AA      α(0)
     1   6 C        2.804     0.173    24.278     8.072
     2   7 N        1.789    -0.357    30.111     8.128
     3   1 H        0.924     0.016     2.787     2.611
     4   8 O        1.652    -0.341    19.746     5.999
     5   1 H        0.860     0.146     1.430     1.873
     6   1 H        0.808     0.358     0.569     1.184
     7   6 C        2.750     0.233    23.107     7.871
     8   7 N        1.828    -0.294    28.463     7.906
     9   1 H        0.925     0.065     2.141     2.288

Wiberg/Mayer (AO) data.
largest (>0.10) Wiberg bond orders for each atom

     #   Z sym  total        # sym  WBO       # sym  WBO       # sym  WBO
 ---------------------------------------------------------------------------
     1   6 C    3.962 --     2 N    1.799     8 N    1.169     3 H    0.947
     2   7 N    3.103 --     1 C    1.799     5 H    0.949     6 H    0.102
     3   1 H    1.000 --     1 C    0.947
     4   8 O    2.288 --     7 C    1.272     6 H    0.746     8 N    0.161
     5   1 H    0.979 --     2 N    0.949
     6   1 H    0.872 --     4 O    0.746     2 N    0.102
     7   6 C    3.936 --     8 N    1.617     4 O    1.272     9 H    0.945
     8   7 N    3.040 --     7 C    1.617     1 C    1.169     4 O    0.161
     9   1 H    0.996 --     7 C    0.945
 ---------------------------------------------------------------------------

molecular dipole:
                 x           y           z       tot (Debye)
 q only:       -0.120      -0.037      -0.149
   full:       -0.523       0.071      -0.090       1.362

 projected vibrational frequencies (cm⁻¹)
eigval :       -0.00    -0.00     0.00     0.00     0.00     0.00
eigval :      155.28   319.41   398.75   513.79   784.19   806.80
eigval :      852.44   945.83   980.30  1034.31  1189.96  1202.36
eigval :     1261.91  1333.62  1367.89  1593.41  1667.70  2630.44
eigval :     2906.19  3020.62  3392.14

   temp. (K)  partition function   enthalpy   heat capacity  entropy
                                   cal/mol     cal/K/mol   cal/K/mol   J/K/mol
 298.15  VIB   3.40                 1234.939     10.211      6.574
         ROT  0.611E+05              888.752      2.981     24.882
         INT  0.208E+06             2123.692     13.192     31.456
         TR   0.592E+27             1481.254      4.968     38.724
         TOT                        3604.9457    18.1600    70.1804   293.6349

       T/K    H(0)-H(T)+PV         H(T)/Eh          T*S/Eh         G(T)/Eh
   ------------------------------------------------------------------------
    298.15    0.574485E-02    0.703476E-01    0.333450E-01    0.370026E-01
   ------------------------------------------------------------------------

         :::::::::::::::::::::::::::::::::::::::::::::::::::::
         ::                  THERMODYNAMIC                  ::
         :::::::::::::::::::::::::::::::::::::::::::::::::::::
         :: total free energy         -16.158981646002 Eh   ::
         ::.................................................::
         :: total energy              -16.195984290239 Eh   ::
         :: zero point energy           0.064602779140 Eh   ::
         :: G(RRHO) w/o ZPVE           -0.027600134904 Eh   ::
         :: G(RRHO) contrib.            0.037002644237 Eh   ::
         :::::::::::::::::::::::::::::::::::::::::::::::::::::

           -------------------------------------------------
          | TOTAL ENERGY              -16.195984290239 Eh   |
          | TOTAL ENTHALPY            -16.125636664511 Eh   |
          | TOTAL FREE ENERGY         -16.158981646002 Eh   |
          | GRADIENT NORM               0.000024674193 Eh/α |
          | HOMO-LUMO GAP               3.004218127697 eV   |
           -------------------------------------------------

 * finished run on 2025/01/10 at 14:24:03.259
normal termination of xtb
