   * xtb version 6.7.1 (edcfbbe) compiled by 'albert@albert-system' on 2024-07-22

   ID    Z sym.   atoms
    1    8 O      1, 4
    2    1 H      2, 3, 5, 6, 9, 11-13, 16
    3    6 C      7, 14
    4    7 N      8, 10, 15

          program call               : /home/adpal/xtb-dist/bin/xtb ./results/p_{0,41}_coordinatesxTB.xyz --ohess --uhf 1 --parallel 8
          :  Hamiltonian                  GFN2-xTB          :
 * total energy  :   -25.7485309 Eh     change        0.1065814E-13 Eh
   *** GEOMETRY OPTIMIZATION CONVERGED AFTER 1 ITERATIONS ***

 final structure:
================
16
 xtb: 6.7.1 (edcfbbe)
O            3.45596659207709       -1.20130351290639        1.64887699291216
H            2.07830835101463        1.04061265962231        1.77115388143590
H            3.63104790514372       -0.67108714130688        2.43767651382932
O            3.95092016381954        0.56831808401690        0.24787881601468
H            1.36281134279266        0.80129335181495        0.31480946388042
H            4.40756953985902        0.54844446078444       -2.27152692424966
C            2.96727714350784       -0.37798820664107        0.65677217005967
N            1.80826891818811        0.33404727778589        1.09356727862065
H            2.70964967240959       -1.03465869039721       -0.18463799315511
N            6.13279392931057        0.96379851205162       -0.23661411669596
H            5.42143882251827       -0.75618606238042       -2.27310679064397
H            6.94347728093984        0.69277746589022       -0.77997132082186
H            5.83007257580338        1.88772892732153       -0.52433099408578
C            5.05661048391949        0.01691071986772       -0.40911089220825
N            4.67148114603020       -0.29549042419067       -1.77376214343906
H            5.35377613266602       -0.92946742133324        0.06944605854648

          :  Hamiltonian                  GFN2-xTB          :
         :: gradient norm              0.000039779573 Eh/a0 ::
         :: HOMO-LUMO gap             10.537440133686 eV    ::
         :: SCC energy               -25.965561849866 Eh    ::
         :: -> dispersion             -0.009031753326 Eh    ::
         :: repulsion energy           0.217030921610 Eh    ::

    * Orbital Energies and Occupations

         #    Occupation            Energy/Eh            Energy/eV
      -------------------------------------------------------------
         1        2.0000           -0.7143789             -19.4392
       ...           ...                  ...                  ...
        10        2.0000           -0.5553928             -15.1130
        11        2.0000           -0.5470136             -14.8850
        12        2.0000           -0.5328736             -14.5002
        13        2.0000           -0.5189162             -14.1204
        14        2.0000           -0.5078719             -13.8199
        15        2.0000           -0.4958686             -13.4933
        16        2.0000           -0.4820723             -13.1179
        17        2.0000           -0.4545384             -12.3686
        18        2.0000           -0.4452999             -12.1172
        19        2.0000           -0.4292515             -11.6805
        20        2.0000           -0.4069656             -11.0741
        21        2.0000           -0.3962963             -10.7838
        22        2.0000           -0.3751619             -10.2087 (HOMO)
        23                          0.0120819               0.3288 (LUMO)
        24                          0.0457848               1.2459
        25                          0.0533984               1.4530
        26                          0.0718402               1.9549
        27                          0.0901518               2.4532
        28                          0.1060944               2.8870
        29                          0.1265962               3.4449
        30                          0.1444941               3.9319
        31                          0.1609822               4.3805
        32                          0.1813656               4.9352
        33                          0.2146263               5.8403
       ...                                ...                  ...
        37                          0.2881479               7.8409
      -------------------------------------------------------------
                  HL-Gap            0.3872438 Eh           10.5374 eV

     #   Z          covCN         q      C6AA      α(0)
     1   8 O        1.658    -0.435    21.549     6.267
     2   1 H        0.860     0.165     1.302     1.787
     3   1 H        0.805     0.313     0.684     1.299
     4   8 O        1.703    -0.366    20.189     6.066
     5   1 H        0.860     0.165     1.305     1.789
     6   1 H        0.860     0.152     1.390     1.847
     7   6 C        3.555     0.315    16.649     5.958
     8   7 N        2.630    -0.357    29.199     8.025
     9   1 H        0.923     0.046     2.372     2.409
    10   7 N        2.630    -0.364    29.386     8.051
    11   1 H        0.860     0.148     1.413     1.862
    12   1 H        0.860     0.150     1.401     1.854
    13   1 H        0.860     0.158     1.345     1.817
    14   6 C        3.611     0.263    17.007     5.955
    15   7 N        2.629    -0.382    29.875     8.118
    16   1 H        0.923     0.030     2.593     2.518

Wiberg/Mayer (AO) data.
largest (>0.10) Wiberg bond orders for each atom

     #   Z sym  total        # sym  WBO       # sym  WBO       # sym  WBO
 ---------------------------------------------------------------------------
     1   8 O    2.000 --     7 C    1.014     3 H    0.881
     2   1 H    0.973 --     8 N    0.954
     3   1 H    0.902 --     1 O    0.881
     4   8 O    2.069 --    14 C    0.971     7 C    0.919
     5   1 H    0.973 --     8 N    0.957
     6   1 H    0.977 --    15 N    0.961
     7   6 C    3.932 --     8 N    1.030     1 O    1.014     9 H    0.948
                             4 O    0.919
     8   7 N    3.029 --     7 C    1.030     5 H    0.957     2 H    0.954
     9   1 H    0.998 --     7 C    0.948
    10   7 N    3.019 --    14 C    1.008    12 H    0.962    13 H    0.958
    11   1 H    0.978 --    15 N    0.963
    12   1 H    0.977 --    10 N    0.962
    13   1 H    0.975 --    10 N    0.958
    14   6 C    3.948 --    10 N    1.008    15 N    0.994     4 O    0.971
                            16 H    0.951
    15   7 N    3.017 --    14 C    0.994    11 H    0.963     6 H    0.961
    16   1 H    0.999 --    14 C    0.951
 ---------------------------------------------------------------------------

molecular dipole:
                 x           y           z       tot (Debye)
 q only:        0.140       0.447      -0.221
   full:        0.565       0.972      -0.760       3.449

 projected vibrational frequencies (cm⁻¹)
eigval :       -0.00    -0.00    -0.00    -0.00     0.00     0.00
eigval :       61.75    78.40   170.50   214.07   238.12   266.53
eigval :      311.02   355.10   436.39   458.07   493.32   552.16
eigval :      606.52   856.26   886.79   906.19   956.44   969.53
eigval :      993.55  1028.21  1087.28  1095.53  1117.72  1151.00
eigval :     1219.15  1260.20  1290.83  1309.82  1332.08  1354.95
eigval :     1527.61  1537.56  1547.52  2879.36  2926.26  3393.46
eigval :     3396.29  3400.91  3439.92  3447.74  3452.94  3509.40

   temp. (K)  partition function   enthalpy   heat capacity  entropy
                                   cal/mol     cal/K/mol   cal/K/mol   J/K/mol
 298.15  VIB   193.                 3813.529     25.411     22.816
         ROT  0.261E+06              888.752      2.981     27.765
         INT  0.505E+08             4702.282     28.392     50.581
         TR   0.107E+28             1481.254      4.968     39.905
         TOT                        6183.5354    33.3601    90.4853   378.5906

       T/K    H(0)-H(T)+PV         H(T)/Eh          T*S/Eh         G(T)/Eh
   ------------------------------------------------------------------------
    298.15    0.985409E-02    0.140886E+00    0.429925E-01    0.978936E-01
   ------------------------------------------------------------------------

         :::::::::::::::::::::::::::::::::::::::::::::::::::::
         ::                  THERMODYNAMIC                  ::
         :::::::::::::::::::::::::::::::::::::::::::::::::::::
         :: total free energy         -25.650637293046 Eh   ::
         ::.................................................::
         :: total energy              -25.748530928256 Eh   ::
         :: zero point energy           0.131032045037 Eh   ::
         :: G(RRHO) w/o ZPVE           -0.033138409826 Eh   ::
         :: G(RRHO) contrib.            0.097893635210 Eh   ::
         :::::::::::::::::::::::::::::::::::::::::::::::::::::

           -------------------------------------------------
          | TOTAL ENERGY              -25.748530928256 Eh   |
          | TOTAL ENTHALPY            -25.607644792243 Eh   |
          | TOTAL FREE ENERGY         -25.650637293046 Eh   |
          | GRADIENT NORM               0.000039782646 Eh/α |
          | HOMO-LUMO GAP              10.537439977393 eV   |
           -------------------------------------------------

 * finished run on 2025/01/10 at 14:25:39.718
normal termination of xtb
