   * xtb version 6.7.1 (edcfbbe) compiled by 'albert@albert-system' on 2024-07-22

   ID    Z sym.   atoms
    1    8 O      1
    2    6 C      2, 7
    3    1 H      3, 5, 6, 9
    4    7 N      4, 8

          program call               : /home/adpal/xtb-dist/bin/xtb ./results/p_{0,51}_coordinatesxTB.xyz --ohess --uhf 1 --parallel 8
          :  Hamiltonian                  GFN2-xTB          :
 * total energy  :   -16.2066926 Eh     change        0.1421085E-13 Eh
   *** GEOMETRY OPTIMIZATION CONVERGED AFTER 1 ITERATIONS ***

 final structure:
================
9
 xtb: 6.7.1 (edcfbbe)
O            2.57401512806344        0.01331747414250       -1.07204340119020
C            2.23721186664708        0.14767916683231        0.08923735933099
H            1.20541648387727        0.42830469339724        0.35636615506595
N            4.92240711898190       -0.55656455709240       -0.01653695876170
H            5.89498722293653       -0.81016540171671       -0.02749714522481
H            4.39069968250008       -0.45182344153213       -0.88093710977171
C            4.24814165749131       -0.33709971265238        1.10562054817728
N            3.00166283762706       -0.00798654178591        1.20774921564219
H            4.79397800187535       -0.44302167959259        2.03987133673219

          :  Hamiltonian                  GFN2-xTB          :
         :: gradient norm              0.000034651435 Eh/a0 ::
         :: HOMO-LUMO gap              2.905491894013 eV    ::
         :: SCC energy               -16.395687595443 Eh    ::
         :: -> dispersion             -0.004387262033 Eh    ::
         :: repulsion energy           0.188994969709 Eh    ::

    * Orbital Energies and Occupations

         #    Occupation            Energy/Eh            Energy/eV
      -------------------------------------------------------------
         1        2.0000           -0.7058173             -19.2063
         2        2.0000           -0.6863589             -18.6768
         3        2.0000           -0.6541372             -17.8000
         4        2.0000           -0.6239000             -16.9772
         5        2.0000           -0.6003770             -16.3371
         6        2.0000           -0.5805805             -15.7984
         7        2.0000           -0.5448782             -14.8269
         8        2.0000           -0.5432773             -14.7833
         9        2.0000           -0.5293207             -14.4035
        10        2.0000           -0.5086713             -13.8417
        11        2.0000           -0.5082237             -13.8295
        12        2.0000           -0.4218458             -11.4790
        13        2.0000           -0.4048552             -11.0167
        14        2.0000           -0.3867266             -10.5234 (HOMO)
        15                         -0.2799517              -7.6179 (LUMO)
        16                         -0.1748978              -4.7592
        17                          0.0059743               0.1626
        18                          0.1021055               2.7784
        19                          0.1583582               4.3091
        20                          0.2165252               5.8920
        21                          0.2536945               6.9034
        22                          0.3966827              10.7943
        23                          0.4749009              12.9227
        24                          0.6448378              17.5469
      -------------------------------------------------------------
                  HL-Gap            0.1067749 Eh            2.9055 eV

     #   Z          covCN         q      C6AA      α(0)
     1   8 O        0.856    -0.411    21.898     6.274
     2   6 C        2.740     0.278    22.289     7.730
     3   1 H        0.923     0.016     2.800     2.617
     4   7 N        2.636    -0.221    25.833     7.549
     5   1 H        0.860     0.185     1.186     1.706
     6   1 H        0.860     0.243     0.911     1.495
     7   6 C        2.797     0.163    24.474     8.104
     8   7 N        1.827    -0.307    28.809     7.953
     9   1 H        0.925     0.054     2.267     2.354

Wiberg/Mayer (AO) data.
largest (>0.10) Wiberg bond orders for each atom

     #   Z sym  total        # sym  WBO       # sym  WBO       # sym  WBO
 ---------------------------------------------------------------------------
     1   8 O    2.058 --     2 C    1.744     8 N    0.108
     2   6 C    3.934 --     1 O    1.744     8 N    1.192     3 H    0.933
     3   1 H    1.000 --     2 C    0.933
     4   7 N    3.481 --     7 C    1.386     5 H    0.946     6 H    0.884
                             8 N    0.159
     5   1 H    0.966 --     4 N    0.946
     6   1 H    0.941 --     4 N    0.884
     7   6 C    3.961 --     8 N    1.540     4 N    1.386     9 H    0.951
     8   7 N    3.032 --     7 C    1.540     2 C    1.192     4 N    0.159
                             1 O    0.108
     9   1 H    0.997 --     7 C    0.951
 ---------------------------------------------------------------------------

molecular dipole:
                 x           y           z       tot (Debye)
 q only:        1.291      -0.323       0.331
   full:        1.482      -0.378       0.185       3.915

 projected vibrational frequencies (cm⁻¹)
eigval :       -0.00    -0.00    -0.00     0.00     0.00     0.00
eigval :      106.52   272.26   313.60   479.31   514.19   686.18
eigval :      798.25   896.00   974.95  1029.02  1095.90  1278.38
eigval :     1307.85  1372.06  1402.94  1610.09  1694.86  2833.51
eigval :     2997.17  3243.45  3498.43

   temp. (K)  partition function   enthalpy   heat capacity  entropy
                                   cal/mol     cal/K/mol   cal/K/mol   J/K/mol
 298.15  VIB   5.84                 1525.041     11.449      8.598
         ROT  0.629E+05              888.752      2.981     24.940
         INT  0.368E+06             2413.794     14.430     33.538
         TR   0.592E+27             1481.254      4.968     38.724
         TOT                        3895.0476    19.3984    72.2619   302.3436

       T/K    H(0)-H(T)+PV         H(T)/Eh          T*S/Eh         G(T)/Eh
   ------------------------------------------------------------------------
    298.15    0.620715E-02    0.709183E-01    0.343339E-01    0.365844E-01
   ------------------------------------------------------------------------

         :::::::::::::::::::::::::::::::::::::::::::::::::::::
         ::                  THERMODYNAMIC                  ::
         :::::::::::::::::::::::::::::::::::::::::::::::::::::
         :: total free energy         -16.170108257970 Eh   ::
         ::.................................................::
         :: total energy              -16.206692625734 Eh   ::
         :: zero point energy           0.064711155777 Eh   ::
         :: G(RRHO) w/o ZPVE           -0.028126788013 Eh   ::
         :: G(RRHO) contrib.            0.036584367764 Eh   ::
         :::::::::::::::::::::::::::::::::::::::::::::::::::::

           -------------------------------------------------
          | TOTAL ENERGY              -16.206692625734 Eh   |
          | TOTAL ENTHALPY            -16.135774316561 Eh   |
          | TOTAL FREE ENERGY         -16.170108257970 Eh   |
          | GRADIENT NORM               0.000034653812 Eh/α |
          | HOMO-LUMO GAP               2.905491753008 eV   |
           -------------------------------------------------

 * finished run on 2025/01/10 at 14:26:19.296
normal termination of xtb
