   * xtb version 6.7.1 (edcfbbe) compiled by 'albert@albert-system' on 2024-07-22

   ID    Z sym.   atoms
    1    8 O      1, 4
    2    1 H      2, 3, 5, 6, 9, 11-13, 16
    3    6 C      7, 14
    4    7 N      8, 10, 15

          program call               : /home/adpal/xtb-dist/bin/xtb ./results/p_{0,40}_coordinatesxTB.xyz --ohess --uhf 1 --parallel 8
          :  Hamiltonian                  GFN2-xTB          :
 * total energy  :   -25.7490363 Eh     change       -0.7105427E-14 Eh
   *** GEOMETRY OPTIMIZATION CONVERGED AFTER 1 ITERATIONS ***

 final structure:
================
16
 xtb: 6.7.1 (edcfbbe)
O            2.52079854954646       -0.78714073117325       -1.06209558548429
H            0.60414149455684       -0.74868290684642        0.65757957743758
H            1.78144566581095       -0.47234802459208       -1.59485979839552
O            4.87366706565969       -2.38487801821743        1.62621973742466
H            5.32138812837570       -0.07621527176102        2.33898784285115
H            4.22910274414460       -3.07705051784335        1.44613189496819
C            4.49142720424946       -1.23009496902897        0.91377748070967
N            5.30274571033226       -0.11628870932564        1.32372563278024
H            4.61567286728551       -1.38125749201220       -0.16771841698418
N            3.08678811384740       -0.98543983521635        1.14544572628687
H            0.98568027822345        0.71365006482010        1.30656547152714
H            6.25660666343924       -0.24366055616904        1.00823642595740
H            2.96012799203542       -0.59823223221138        2.07671656066195
C            2.45330387922071       -0.12195116303141        0.16307291337327
N            1.07371412123509        0.13428728118433        0.48110750000600
H            2.97189952203730        0.85783308142414        0.08475703687981

          :  Hamiltonian                  GFN2-xTB          :
         :: gradient norm              0.000046702897 Eh/a0 ::
         :: HOMO-LUMO gap             11.079219598781 eV    ::
         :: SCC energy               -25.965022568281 Eh    ::
         :: -> dispersion             -0.009215298314 Eh    ::
         :: repulsion energy           0.215986298923 Eh    ::

    * Orbital Energies and Occupations

         #    Occupation            Energy/Eh            Energy/eV
      -------------------------------------------------------------
         1        2.0000           -0.6987010             -19.0126
       ...           ...                  ...                  ...
        10        2.0000           -0.5589226             -15.2091
        11        2.0000           -0.5523348             -15.0298
        12        2.0000           -0.5348248             -14.5533
        13        2.0000           -0.5100924             -13.8803
        14        2.0000           -0.5055383             -13.7564
        15        2.0000           -0.4927648             -13.4088
        16        2.0000           -0.4805909             -13.0775
        17        2.0000           -0.4741970             -12.9036
        18        2.0000           -0.4329411             -11.7809
        19        2.0000           -0.4190633             -11.4033
        20        2.0000           -0.4008280             -10.9071
        21        2.0000           -0.3890272             -10.5860
        22        2.0000           -0.3832202             -10.4280 (HOMO)
        23                          0.0239336               0.6513 (LUMO)
        24                          0.0454827               1.2376
        25                          0.0557160               1.5161
        26                          0.0620575               1.6887
        27                          0.0840652               2.2875
        28                          0.1178786               3.2076
        29                          0.1298945               3.5346
        30                          0.1487280               4.0471
        31                          0.1716843               4.6718
        32                          0.1765802               4.8050
        33                          0.1956458               5.3238
       ...                                ...                  ...
        37                          0.2816273               7.6635
      -------------------------------------------------------------
                  HL-Gap            0.4071538 Eh           11.0792 eV

     #   Z          covCN         q      C6AA      α(0)
     1   8 O        1.658    -0.445    21.737     6.294
     2   1 H        0.860     0.165     1.300     1.786
     3   1 H        0.805     0.316     0.675     1.291
     4   8 O        1.656    -0.466    22.166     6.356
     5   1 H        0.860     0.158     1.349     1.820
     6   1 H        0.805     0.303     0.712     1.325
     7   6 C        3.599     0.257    17.144     5.990
     8   7 N        2.631    -0.366    29.442     8.059
     9   1 H        0.923     0.034     2.526     2.485
    10   7 N        2.682    -0.314    28.088     7.871
    11   1 H        0.860     0.152     1.391     1.847
    12   1 H        0.860     0.160     1.337     1.811
    13   1 H        0.860     0.154     1.374     1.836
    14   6 C        3.598     0.259    17.118     5.987
    15   7 N        2.631    -0.370    29.542     8.072
    16   1 H        0.921     0.002     3.021     2.718

Wiberg/Mayer (AO) data.
largest (>0.10) Wiberg bond orders for each atom

     #   Z sym  total        # sym  WBO       # sym  WBO       # sym  WBO
 ---------------------------------------------------------------------------
     1   8 O    1.967 --    14 C    0.995     3 H    0.880
     2   1 H    0.973 --    15 N    0.956
     3   1 H    0.900 --     1 O    0.880
     4   8 O    1.957 --     7 C    0.967     6 H    0.890
     5   1 H    0.975 --     8 N    0.957
     6   1 H    0.908 --     4 O    0.890
     7   6 C    3.952 --     8 N    1.023    10 N    0.991     4 O    0.967
                             9 H    0.951
     8   7 N    3.021 --     7 C    1.023    12 H    0.959     5 H    0.957
     9   1 H    0.999 --     7 C    0.951
    10   7 N    3.072 --     7 C    0.991    14 C    0.978    13 H    0.947
    11   1 H    0.977 --    15 N    0.961
    12   1 H    0.974 --     8 N    0.959
    13   1 H    0.976 --    10 N    0.947
    14   6 C    3.955 --    15 N    1.021     1 O    0.995    10 N    0.978
                            16 H    0.944
    15   7 N    3.021 --    14 C    1.021    11 H    0.961     2 H    0.956
    16   1 H    1.000 --    14 C    0.944
 ---------------------------------------------------------------------------

molecular dipole:
                 x           y           z       tot (Debye)
 q only:       -0.669       0.244       0.106
   full:       -0.606       0.205       0.514       2.086

 projected vibrational frequencies (cm⁻¹)
eigval :       -0.00    -0.00    -0.00     0.00     0.00     0.00
eigval :       56.02    78.09   160.86   173.14   259.66   303.74
eigval :      314.44   341.99   409.05   450.13   471.62   526.08
eigval :      583.02   821.75   916.08   932.42   957.62   996.65
eigval :     1042.32  1051.48  1060.20  1135.96  1154.75  1195.13
eigval :     1224.44  1243.28  1288.87  1317.22  1323.15  1336.57
eigval :     1400.04  1541.67  1556.25  2749.73  2909.69  3357.57
eigval :     3386.23  3393.05  3436.06  3441.96  3543.13  3562.85

   temp. (K)  partition function   enthalpy   heat capacity  entropy
                                   cal/mol     cal/K/mol   cal/K/mol   J/K/mol
 298.15  VIB   238.                 3867.264     25.392     23.271
         ROT  0.270E+06              888.752      2.981     27.834
         INT  0.642E+08             4756.017     28.373     51.104
         TR   0.107E+28             1481.254      4.968     39.905
         TOT                        6237.2705    33.3410    91.0089   380.7812

       T/K    H(0)-H(T)+PV         H(T)/Eh          T*S/Eh         G(T)/Eh
   ------------------------------------------------------------------------
    298.15    0.993972E-02    0.140716E+00    0.432413E-01    0.974743E-01
   ------------------------------------------------------------------------

         :::::::::::::::::::::::::::::::::::::::::::::::::::::
         ::                  THERMODYNAMIC                  ::
         :::::::::::::::::::::::::::::::::::::::::::::::::::::
         :: total free energy         -25.651561961210 Eh   ::
         ::.................................................::
         :: total energy              -25.749036269358 Eh   ::
         :: zero point energy           0.130775850435 Eh   ::
         :: G(RRHO) w/o ZPVE           -0.033301542287 Eh   ::
         :: G(RRHO) contrib.            0.097474308148 Eh   ::
         :::::::::::::::::::::::::::::::::::::::::::::::::::::

           -------------------------------------------------
          | TOTAL ENERGY              -25.749036269358 Eh   |
          | TOTAL ENTHALPY            -25.608320695768 Eh   |
          | TOTAL FREE ENERGY         -25.651561961210 Eh   |
          | GRADIENT NORM               0.000046706319 Eh/α |
          | HOMO-LUMO GAP              11.079219531400 eV   |
           -------------------------------------------------

 * finished run on 2025/01/10 at 14:25:36.163
normal termination of xtb
