   * xtb version 6.7.1 (edcfbbe) compiled by 'albert@albert-system' on 2024-07-22

   ID    Z sym.   atoms
    1    8 O      1, 2, 9
    2    1 H      3, 5, 8, 10, 11, 14
    3    6 C      4, 6, 12
    4    7 N      7, 13

          program call               : /home/adpal/xtb-dist/bin/xtb ./results/p_{0,61}_coordinatesxTB.xyz --ohess --uhf 1 --parallel 8
          :  Hamiltonian                  GFN2-xTB          :
 * total energy  :   -27.5064940 Eh     change       -0.7105427E-14 Eh
   *** GEOMETRY OPTIMIZATION CONVERGED AFTER 1 ITERATIONS ***

 final structure:
================
14
 xtb: 6.7.1 (edcfbbe)
O            1.70450820453295       -0.49454287289324        0.96227100279591
O            2.41844302753086        0.80078585334775       -0.72557353486760
H            3.15897886098876        1.01815917639492       -1.30125327452448
C            2.67941140776613       -0.34421377673336        0.01002660321773
H            3.63672724632346       -0.28925666345472        0.55257499061869
C            1.88044187358440       -1.71014518007551       -1.87396048550726
N            2.76799400408657       -1.49806811692653       -0.88203524056612
H            1.26523823005128       -0.84001883457945       -2.12300941357637
O           -0.22867107850143       -3.29676621961320       -3.26024853527795
H            3.25859124810135       -2.31240714697925       -0.54237804304361
H            0.84201396361731       -0.30260458439143        0.56885708473765
C            0.96202183366204       -3.23150668089290       -3.43730022360779
N            1.87701898063219       -2.78596998091325       -2.54608480212934
H            1.45632219762409       -3.66377497229004       -4.32849612826939

          :  Hamiltonian                  GFN2-xTB          :
         :: gradient norm              0.000046845598 Eh/a0 ::
         :: HOMO-LUMO gap              3.522602027571 eV    ::
         :: SCC energy               -27.760337110904 Eh    ::
         :: -> dispersion             -0.008180249956 Eh    ::
         :: repulsion energy           0.253843115615 Eh    ::

    * Orbital Energies and Occupations

         #    Occupation            Energy/Eh            Energy/eV
      -------------------------------------------------------------
         1        2.0000           -0.7547144             -20.5368
       ...           ...                  ...                  ...
        11        2.0000           -0.5929141             -16.1340
        12        2.0000           -0.5573769             -15.1670
        13        2.0000           -0.5529618             -15.0469
        14        2.0000           -0.5455679             -14.8457
        15        2.0000           -0.5314465             -14.4614
        16        2.0000           -0.5258138             -14.3081
        17        2.0000           -0.5146438             -14.0042
        18        2.0000           -0.5083911             -13.8340
        19        2.0000           -0.4876207             -13.2688
        20        2.0000           -0.4714149             -12.8279
        21        2.0000           -0.4234248             -11.5220
        22        2.0000           -0.4125562             -11.2262
        23        2.0000           -0.3934480             -10.7063 (HOMO)
        24                         -0.2639947              -7.1837 (LUMO)
        25                         -0.2020445              -5.4979
        26                         -0.0262425              -0.7141
        27                          0.0243392               0.6623
        28                          0.0557763               1.5177
        29                          0.0853119               2.3215
        30                          0.1117065               3.0397
        31                          0.1310321               3.5656
        32                          0.1756939               4.7809
        33                          0.1849225               5.0320
        34                          0.2335010               6.3539
       ...                                ...                  ...
        38                          0.6754008              18.3786
      -------------------------------------------------------------
                  HL-Gap            0.1294533 Eh            3.5226 eV

     #   Z          covCN         q      C6AA      α(0)
     1   8 O        1.658    -0.418    21.209     6.217
     2   8 O        1.658    -0.434    21.514     6.262
     3   1 H        0.805     0.315     0.676     1.292
     4   6 C        3.542     0.313    16.781     6.002
     5   1 H        0.923     0.044     2.396     2.421
     6   6 C        2.777     0.157    24.599     8.123
     7   7 N        2.692    -0.204    25.425     7.489
     8   1 H        0.924     0.049     2.335     2.390
     9   8 O        0.857    -0.386    21.412     6.204
    10   1 H        0.860     0.199     1.113     1.652
    11   1 H        0.805     0.330     0.636     1.253
    12   6 C        2.713     0.273    22.385     7.745
    13   7 N        1.836    -0.248    27.326     7.747
    14   1 H        0.922     0.011     2.873     2.651

Wiberg/Mayer (AO) data.
largest (>0.10) Wiberg bond orders for each atom

     #   Z sym  total        # sym  WBO       # sym  WBO       # sym  WBO
 ---------------------------------------------------------------------------
     1   8 O    2.011 --     4 C    1.029    11 H    0.870
     2   8 O    1.993 --     4 C    1.002     3 H    0.883
     3   1 H    0.900 --     2 O    0.883
     4   6 C    3.939 --     1 O    1.029     2 O    1.002     5 H    0.946
                             7 N    0.942
     5   1 H    0.997 --     4 C    0.946
     6   6 C    3.960 --    13 N    1.672     7 N    1.261     8 H    0.933
     7   7 N    3.417 --     6 C    1.261     4 C    0.942    10 H    0.929
                            13 N    0.155
     8   1 H    0.998 --     6 C    0.933
     9   8 O    2.051 --    12 C    1.771    13 N    0.160
    10   1 H    0.961 --     7 N    0.929
    11   1 H    0.891 --     1 O    0.870
    12   6 C    3.944 --     9 O    1.771    13 N    1.214    14 H    0.918
    13   7 N    3.257 --     6 C    1.672    12 C    1.214     9 O    0.160
                             7 N    0.155
    14   1 H    0.999 --    12 C    0.918
 ---------------------------------------------------------------------------

molecular dipole:
                 x           y           z       tot (Debye)
 q only:        1.610       1.023       0.564
   full:        1.781       1.102       0.336       5.390

 projected vibrational frequencies (cm⁻¹)
eigval :       -0.00    -0.00    -0.00     0.00     0.00     0.00
eigval :       44.45    62.39   112.08   163.01   170.93   282.27
eigval :      302.13   351.90   398.12   458.68   508.45   601.95
eigval :      689.49   728.14   914.18   933.70   943.40  1026.34
eigval :     1084.56  1100.14  1160.98  1238.54  1241.29  1274.93
eigval :     1317.32  1344.51  1366.51  1429.43  1730.74  1737.01
eigval :     2767.19  2882.68  2907.84  3443.62  3499.85  3558.57

   temp. (K)  partition function   enthalpy   heat capacity  entropy
                                   cal/mol     cal/K/mol   cal/K/mol   J/K/mol
 298.15  VIB   583.                 3957.995     23.965     24.745
         ROT  0.435E+06              888.752      2.981     28.780
         INT  0.253E+09             4846.747     26.946     53.525
         TR   0.124E+28             1481.254      4.968     40.195
         TOT                        6328.0014    31.9139    93.7209   392.1281

       T/K    H(0)-H(T)+PV         H(T)/Eh          T*S/Eh         G(T)/Eh
   ------------------------------------------------------------------------
    298.15    0.100843E-01    0.109816E+00    0.445298E-01    0.652865E-01
   ------------------------------------------------------------------------

         :::::::::::::::::::::::::::::::::::::::::::::::::::::
         ::                  THERMODYNAMIC                  ::
         :::::::::::::::::::::::::::::::::::::::::::::::::::::
         :: total free energy         -27.441207471255 Eh   ::
         ::.................................................::
         :: total energy              -27.506493995288 Eh   ::
         :: zero point energy           0.099732018291 Eh   ::
         :: G(RRHO) w/o ZPVE           -0.034445494257 Eh   ::
         :: G(RRHO) contrib.            0.065286524034 Eh   ::
         :::::::::::::::::::::::::::::::::::::::::::::::::::::

           -------------------------------------------------
          | TOTAL ENERGY              -27.506493995288 Eh   |
          | TOTAL ENTHALPY            -27.396677664949 Eh   |
          | TOTAL FREE ENERGY         -27.441207471255 Eh   |
          | GRADIENT NORM               0.000046817733 Eh/α |
          | HOMO-LUMO GAP               3.522602418193 eV   |
           -------------------------------------------------

 * finished run on 2025/01/10 at 14:26:43.510
normal termination of xtb
