   * xtb version 6.7.1 (edcfbbe) compiled by 'albert@albert-system' on 2024-07-22

   ID    Z sym.   atoms
    1    8 O      1, 4
    2    1 H      2, 3, 5, 6, 9, 11-13, 16
    3    6 C      7, 14
    4    7 N      8, 10, 15

          program call               : /home/adpal/xtb-dist/bin/xtb ./results/p_{0,42}_coordinatesxTB.xyz --ohess --uhf 1 --parallel 8
          :  Hamiltonian                  GFN2-xTB          :
 * total energy  :   -25.7510346 Eh     change        0.1065814E-13 Eh
   *** GEOMETRY OPTIMIZATION CONVERGED AFTER 1 ITERATIONS ***

 final structure:
================
16
 xtb: 6.7.1 (edcfbbe)
O            1.86142367703222        0.10064902594670       -0.44224162864828
H            2.96055038092225        1.18997688645775        1.78847709840064
H            1.21821713937124        0.44902102608355        0.18814243625071
O            3.03798812355953       -1.11731944430304        1.11433297722485
H            5.05241490478848        2.20905151889456       -0.68184920803646
H            2.78306142450906       -1.92099027586088        0.64821499012882
C            3.08285042917130       -0.04557081601950        0.19977156207527
N            3.44361273235997        1.15000463052015        0.89539276280658
H            3.82197797124167       -0.22678043358728       -0.59223696882953
N            4.98504912318883        2.43314982881733        2.05825543180068
H            6.48708102216531        1.68626224052449       -0.04872483565913
H            5.95813657311738        2.63460612278751        2.25598630018093
H            4.55416349170792        3.26102752027736        1.65971827600948
C            4.86211892038881        1.32050931642693        1.13671040261375
N            5.50316743412213        1.46915475935154       -0.15430505758722
H            5.31973665235365        0.44162809368271        1.62606546126891

          :  Hamiltonian                  GFN2-xTB          :
         :: gradient norm              0.000036475161 Eh/a0 ::
         :: HOMO-LUMO gap             10.639971780961 eV    ::
         :: SCC energy               -25.967996008851 Eh    ::
         :: -> dispersion             -0.009259246813 Eh    ::
         :: repulsion energy           0.216961416395 Eh    ::

    * Orbital Energies and Occupations

         #    Occupation            Energy/Eh            Energy/eV
      -------------------------------------------------------------
         1        2.0000           -0.7070292             -19.2392
       ...           ...                  ...                  ...
        10        2.0000           -0.5616030             -15.2820
        11        2.0000           -0.5399180             -14.6919
        12        2.0000           -0.5322382             -14.4829
        13        2.0000           -0.5169161             -14.0660
        14        2.0000           -0.5039759             -13.7139
        15        2.0000           -0.4916143             -13.3775
        16        2.0000           -0.4721278             -12.8473
        17        2.0000           -0.4625171             -12.5857
        18        2.0000           -0.4423697             -12.0375
        19        2.0000           -0.4332028             -11.7880
        20        2.0000           -0.4019495             -10.9376
        21        2.0000           -0.3831808             -10.4269
        22        2.0000           -0.3708497             -10.0913 (HOMO)
        23                          0.0201621               0.5486 (LUMO)
        24                          0.0494566               1.3458
        25                          0.0653310               1.7777
        26                          0.0723082               1.9676
        27                          0.0965036               2.6260
        28                          0.1075214               2.9258
        29                          0.1207940               3.2870
        30                          0.1493073               4.0629
        31                          0.1650480               4.4912
        32                          0.1736995               4.7266
        33                          0.2073822               5.6432
       ...                                ...                  ...
        37                          0.2874103               7.8208
      -------------------------------------------------------------
                  HL-Gap            0.3910118 Eh           10.6400 eV

     #   Z          covCN         q      C6AA      α(0)
     1   8 O        1.657    -0.448    21.811     6.305
     2   1 H        0.860     0.176     1.240     1.744
     3   1 H        0.805     0.309     0.695     1.310
     4   8 O        1.656    -0.475    22.365     6.384
     5   1 H        0.860     0.155     1.366     1.831
     6   1 H        0.805     0.304     0.709     1.323
     7   6 C        3.545     0.310    16.789     5.999
     8   7 N        2.692    -0.295    27.604     7.803
     9   1 H        0.923     0.044     2.402     2.424
    10   7 N        2.636    -0.369    29.520     8.069
    11   1 H        0.860     0.147     1.420     1.867
    12   1 H        0.860     0.147     1.425     1.870
    13   1 H        0.860     0.152     1.388     1.846
    14   6 C        3.656     0.197    17.747     6.048
    15   7 N        2.635    -0.371    29.576     8.077
    16   1 H        0.922     0.019     2.753     2.595

Wiberg/Mayer (AO) data.
largest (>0.10) Wiberg bond orders for each atom

     #   Z sym  total        # sym  WBO       # sym  WBO       # sym  WBO
 ---------------------------------------------------------------------------
     1   8 O    1.984 --     7 C    0.997     3 H    0.885
     2   1 H    0.969 --     8 N    0.938
     3   1 H    0.905 --     1 O    0.885
     4   8 O    1.956 --     7 C    0.960     6 H    0.890
     5   1 H    0.976 --    15 N    0.960
     6   1 H    0.908 --     4 O    0.890
     7   6 C    3.934 --     8 N    1.013     1 O    0.997     4 O    0.960
                             9 H    0.946
     8   7 N    3.085 --     7 C    1.013    14 C    0.991     2 H    0.938
     9   1 H    0.998 --     7 C    0.946
    10   7 N    3.016 --    14 C    1.006    12 H    0.963    13 H    0.961
    11   1 H    0.978 --    15 N    0.962
    12   1 H    0.978 --    10 N    0.963
    13   1 H    0.977 --    10 N    0.961
    14   6 C    3.972 --    15 N    1.007    10 N    1.006     8 N    0.991
                            16 H    0.951
    15   7 N    3.020 --    14 C    1.007    11 H    0.962     5 H    0.960
    16   1 H    1.000 --    14 C    0.951
 ---------------------------------------------------------------------------

molecular dipole:
                 x           y           z       tot (Debye)
 q only:        0.097       0.348       0.060
   full:        0.340       0.547       0.125       1.667

 projected vibrational frequencies (cm⁻¹)
eigval :       -0.00    -0.00    -0.00     0.00     0.00     0.00
eigval :       60.14    83.70   174.66   249.88   273.46   295.28
eigval :      324.96   373.11   426.46   462.34   477.03   542.83
eigval :      581.25   819.29   873.38   916.43   955.85   991.93
eigval :     1038.34  1043.03  1071.37  1092.39  1146.73  1183.12
eigval :     1208.03  1230.93  1291.59  1314.41  1330.36  1348.20
eigval :     1382.49  1534.01  1541.92  2821.91  2925.34  3372.12
eigval :     3392.70  3396.62  3432.25  3437.68  3521.25  3554.69

   temp. (K)  partition function   enthalpy   heat capacity  entropy
                                   cal/mol     cal/K/mol   cal/K/mol   J/K/mol
 298.15  VIB   149.                 3720.323     25.320     21.983
         ROT  0.270E+06              888.752      2.981     27.836
         INT  0.403E+08             4609.075     28.301     49.820
         TR   0.107E+28             1481.254      4.968     39.905
         TOT                        6090.3289    33.2691    89.7244   375.4069

       T/K    H(0)-H(T)+PV         H(T)/Eh          T*S/Eh         G(T)/Eh
   ------------------------------------------------------------------------
    298.15    0.970556E-02    0.140685E+00    0.426310E-01    0.980543E-01
   ------------------------------------------------------------------------

         :::::::::::::::::::::::::::::::::::::::::::::::::::::
         ::                  THERMODYNAMIC                  ::
         :::::::::::::::::::::::::::::::::::::::::::::::::::::
         :: total free energy         -25.652980321790 Eh   ::
         ::.................................................::
         :: total energy              -25.751034592455 Eh   ::
         :: zero point energy           0.130979667711 Eh   ::
         :: G(RRHO) w/o ZPVE           -0.032925397045 Eh   ::
         :: G(RRHO) contrib.            0.098054270665 Eh   ::
         :::::::::::::::::::::::::::::::::::::::::::::::::::::

           -------------------------------------------------
          | TOTAL ENERGY              -25.751034592455 Eh   |
          | TOTAL ENTHALPY            -25.610349367784 Eh   |
          | TOTAL FREE ENERGY         -25.652980321790 Eh   |
          | GRADIENT NORM               0.000036472147 Eh/α |
          | HOMO-LUMO GAP              10.639971824303 eV   |
           -------------------------------------------------

 * finished run on 2025/01/10 at 14:25:42.975
normal termination of xtb
