   * xtb version 6.7.1 (edcfbbe) compiled by 'albert@albert-system' on 2024-07-22

   ID    Z sym.   atoms
    1    6 C      1, 4, 10
    2    7 N      2, 5, 11
    3    1 H      3, 6, 8, 9, 12
    4    8 O      7

          program call               : /home/adpal/xtb-dist/bin/xtb ./results/p_{0,18}_coordinatesxTB.xyz --ohess --uhf 1 --parallel 8
          :  Hamiltonian                  GFN2-xTB          :
 * total energy  :   -21.7246206 Eh     change       -0.7105427E-14 Eh
   *** GEOMETRY OPTIMIZATION CONVERGED AFTER 1 ITERATIONS ***

 final structure:
================
12
 xtb: 6.7.1 (edcfbbe)
C            1.63458435769517        2.45238142469830       -2.48418402687932
N            1.74660763174063        2.76099624360041       -3.69156898452455
H            0.79852134738868        1.80743748630952       -2.19386611694746
C            2.30376966784195        2.50051466592901       -0.29436032635891
N            2.49945304879831        2.87248799856225       -1.48258053090043
H            1.46568567861337        1.84121397240861        0.01861353868457
O            3.12089846192902        2.89327237994496        0.67580115663549
H            3.45697022210725        2.52601620254522        3.77383443961588
H            2.54538736576286        3.36179856977519       -3.88761966621331
C            2.89384920651086        2.48347970728201        1.93696010210852
N            3.66789862318578        2.85984087550781        2.84135171742638
H            2.00693438842616        1.82840047343671        2.04174869735318

          :  Hamiltonian                  GFN2-xTB          :
         :: gradient norm              0.000016446599 Eh/a0 ::
         :: HOMO-LUMO gap              2.458757074445 eV    ::
         :: SCC energy               -21.992619992603 Eh    ::
         :: -> dispersion             -0.006558883772 Eh    ::
         :: repulsion energy           0.267999355681 Eh    ::

    * Orbital Energies and Occupations

         #    Occupation            Energy/Eh            Energy/eV
      -------------------------------------------------------------
         1        2.0000           -0.7823258             -21.2882
       ...           ...                  ...                  ...
         7        2.0000           -0.6161451             -16.7662
         8        2.0000           -0.5866481             -15.9635
         9        2.0000           -0.5801564             -15.7869
        10        2.0000           -0.5646521             -15.3650
        11        2.0000           -0.5391777             -14.6718
        12        2.0000           -0.5302220             -14.4281
        13        2.0000           -0.5301356             -14.4257
        14        2.0000           -0.4921549             -13.3922
        15        2.0000           -0.4891476             -13.3104
        16        2.0000           -0.4428019             -12.0493
        17        2.0000           -0.4206526             -11.4465
        18        2.0000           -0.4151056             -11.2956
        19        2.0000           -0.3961597             -10.7801 (HOMO)
        20                         -0.3058020              -8.3213 (LUMO)
        21                         -0.2497279              -6.7954
        22                         -0.1923382              -5.2338
        23                          0.0038380               0.1044
        24                          0.0811581               2.2084
        25                          0.0926320               2.5206
        26                          0.1096269               2.9831
        27                          0.1190495               3.2395
        28                          0.2052036               5.5839
        29                          0.2727657               7.4223
        30                          0.3429483               9.3321
       ...                                ...                  ...
        33                          0.6011444              16.3580
      -------------------------------------------------------------
                  HL-Gap            0.0903577 Eh            2.4588 eV

     #   Z          covCN         q      C6AA      α(0)
     1   6 C        2.805     0.160    24.530     8.114
     2   7 N        1.777    -0.291    28.365     7.887
     3   1 H        0.924     0.018     2.760     2.598
     4   6 C        2.797     0.224    23.298     7.907
     5   7 N        1.829    -0.238    27.081     7.711
     6   1 H        0.921     0.004     2.996     2.707
     7   8 O        1.715    -0.155    16.636     5.507
     8   1 H        0.860     0.175     1.241     1.745
     9   1 H        0.860     0.173     1.253     1.754
    10   6 C        2.737     0.222    23.317     7.906
    11   7 N        1.774    -0.295    28.468     7.901
    12   1 H        0.922     0.004     2.998     2.708

Wiberg/Mayer (AO) data.
largest (>0.10) Wiberg bond orders for each atom

     #   Z sym  total        # sym  WBO       # sym  WBO       # sym  WBO
 ---------------------------------------------------------------------------
     1   6 C    3.962 --     2 N    1.907     5 N    1.085     3 H    0.939
     2   7 N    3.026 --     1 C    1.907     9 H    0.938     4 C    0.101
     3   1 H    1.000 --     1 C    0.939
     4   6 C    3.925 --     5 N    1.739     7 O    1.125     6 H    0.915
                             2 N    0.101
     5   7 N    3.091 --     4 C    1.739     1 C    1.085
     6   1 H    1.000 --     4 C    0.915
     7   8 O    2.471 --     4 C    1.125    10 C    1.072
     8   1 H    0.968 --    11 N    0.942
     9   1 H    0.970 --     2 N    0.938
    10   6 C    3.921 --    11 N    1.889     7 O    1.072    12 H    0.922
    11   7 N    3.029 --    10 C    1.889     8 H    0.942
    12   1 H    1.000 --    10 C    0.922
 ---------------------------------------------------------------------------

molecular dipole:
                 x           y           z       tot (Debye)
 q only:       -0.335      -0.391       0.769
   full:       -0.800      -0.834       1.340       4.498

 projected vibrational frequencies (cm⁻¹)
eigval :       -0.00    -0.00    -0.00    -0.00     0.00     0.00
eigval :       48.17    99.93   124.24   193.98   248.63   312.78
eigval :      406.95   567.58   620.28   783.51   785.98   917.59
eigval :      968.00  1005.38  1060.70  1080.61  1189.98  1209.86
eigval :     1249.10  1323.59  1340.58  1366.70  1663.16  1732.45
eigval :     1744.31  2713.90  2747.41  2895.12  3343.02  3411.52

   temp. (K)  partition function   enthalpy   heat capacity  entropy
                                   cal/mol     cal/K/mol   cal/K/mol   J/K/mol
 298.15  VIB   122.                 3004.588     18.353     18.880
         ROT  0.169E+06              888.752      2.981     26.899
         INT  0.206E+08             3893.341     21.334     45.778
         TR   0.954E+27             1481.254      4.968     39.673
         TOT                        5374.5947    26.3022    85.4512   357.5277

       T/K    H(0)-H(T)+PV         H(T)/Eh          T*S/Eh         G(T)/Eh
   ------------------------------------------------------------------------
    298.15    0.856496E-02    0.932104E-01    0.406006E-01    0.526097E-01
   ------------------------------------------------------------------------

         :::::::::::::::::::::::::::::::::::::::::::::::::::::
         ::                  THERMODYNAMIC                  ::
         :::::::::::::::::::::::::::::::::::::::::::::::::::::
         :: total free energy         -21.672010887290 Eh   ::
         ::.................................................::
         :: total energy              -21.724620636922 Eh   ::
         :: zero point energy           0.084645390943 Eh   ::
         :: G(RRHO) w/o ZPVE           -0.032035641312 Eh   ::
         :: G(RRHO) contrib.            0.052609749631 Eh   ::
         :::::::::::::::::::::::::::::::::::::::::::::::::::::

           -------------------------------------------------
          | TOTAL ENERGY              -21.724620636922 Eh   |
          | TOTAL ENTHALPY            -21.631410284184 Eh   |
          | TOTAL FREE ENERGY         -21.672010887290 Eh   |
          | GRADIENT NORM               0.000016468444 Eh/α |
          | HOMO-LUMO GAP               2.458757591032 eV   |
           -------------------------------------------------

 * finished run on 2025/01/10 at 14:24:19.548
normal termination of xtb
