   * xtb version 6.7.1 (edcfbbe) compiled by 'albert@albert-system' on 2024-07-22

   ID    Z sym.   atoms
    1    6 C      1, 7, 13
    2    7 N      2, 8, 14
    3    1 H      3, 5, 6, 9, 11, 12, 15
    4    8 O      4, 10

          program call               : /home/adpal/xtb-dist/bin/xtb ./results/p_{0,21}_coordinatesxTB.xyz --ohess --uhf 1 --parallel 8
          :  Hamiltonian                  GFN2-xTB          :
 * total energy  :   -26.8424105 Eh     change        0.0000000E+00 Eh
   *** GEOMETRY OPTIMIZATION CONVERGED AFTER 1 ITERATIONS ***

 final structure:
================
15
 xtb: 6.7.1 (edcfbbe)
C            5.28344051434135        1.82964317167698       -1.90898738903837
N            5.97705551562077        2.00054461456086       -2.94670885925979
H            5.65114869426523        1.64004576733254       -0.89186145571280
O            3.04246603774214        3.31972480266770       -0.40812580010243
H            6.97897776651551        1.94295226649492       -2.80316341904054
H            3.87473809675834        3.52612416154829        0.03842603729638
C            3.07118278154832        2.01869973231881       -0.84946896226856
N            3.91877530361854        1.80401672213093       -1.99533069862828
H            2.03915682850010        1.76921721517666       -1.14576831573168
O            3.50764039288228        1.20917603741424        0.21330659441712
H            3.57461653266450       -1.85180094335744        0.87284584836601
H            3.55820782926583        2.09085105280685       -2.89398075149864
C            3.28680206272545       -0.11129753992100        0.12700219616375
N            3.79648010458147       -0.86924770260336        0.98027874786566
H            2.64777153897009       -0.40205935824693       -0.72576377282785

          :  Hamiltonian                  GFN2-xTB          :
         :: gradient norm              0.000016093984 Eh/a0 ::
         :: HOMO-LUMO gap              3.835719229993 eV    ::
         :: SCC energy               -27.116221834081 Eh    ::
         :: -> dispersion             -0.009535735737 Eh    ::
         :: repulsion energy           0.273811358267 Eh    ::

    * Orbital Energies and Occupations

         #    Occupation            Energy/Eh            Energy/eV
      -------------------------------------------------------------
         1        2.0000           -0.7632910             -20.7702
       ...           ...                  ...                  ...
        11        2.0000           -0.5693802             -15.4936
        12        2.0000           -0.5608575             -15.2617
        13        2.0000           -0.5384797             -14.6528
        14        2.0000           -0.5282236             -14.3737
        15        2.0000           -0.5212023             -14.1826
        16        2.0000           -0.5112682             -13.9123
        17        2.0000           -0.5031564             -13.6916
        18        2.0000           -0.4924457             -13.4001
        19        2.0000           -0.4769913             -12.9796
        20        2.0000           -0.4472418             -12.1701
        21        2.0000           -0.4087699             -11.1232
        22        2.0000           -0.4011907             -10.9170
        23        2.0000           -0.3822552             -10.4017 (HOMO)
        24                         -0.2412951              -6.5660 (LUMO)
        25                         -0.2194325              -5.9711
        26                         -0.0139642              -0.3800
        27                          0.0096569               0.2628
        28                          0.0465202               1.2659
        29                          0.0844222               2.2972
        30                          0.1119985               3.0476
        31                          0.1191340               3.2418
        32                          0.1349958               3.6734
        33                          0.1537117               4.1827
        34                          0.1841826               5.0119
       ...                                ...                  ...
        39                          0.5803294              15.7916
      -------------------------------------------------------------
                  HL-Gap            0.1409601 Eh            3.8357 eV

     #   Z          covCN         q      C6AA      α(0)
     1   6 C        2.751     0.151    24.701     8.138
     2   7 N        1.786    -0.360    30.200     8.139
     3   1 H        0.923     0.010     2.896     2.661
     4   8 O        1.658    -0.421    21.269     6.226
     5   1 H        0.860     0.146     1.427     1.871
     6   1 H        0.805     0.328     0.644     1.260
     7   6 C        3.571     0.316    16.516     5.912
     8   7 N        2.694    -0.228    25.981     7.570
     9   1 H        0.923     0.047     2.363     2.404
    10   8 O        1.709    -0.257    18.263     5.770
    11   1 H        0.860     0.166     1.295     1.783
    12   1 H        0.860     0.197     1.122     1.659
    13   6 C        2.717     0.230    23.169     7.879
    14   7 N        1.774    -0.317    29.038     7.980
    15   1 H        0.923    -0.007     3.182     2.790

Wiberg/Mayer (AO) data.
largest (>0.10) Wiberg bond orders for each atom

     #   Z sym  total        # sym  WBO       # sym  WBO       # sym  WBO
 ---------------------------------------------------------------------------
     1   6 C    3.963 --     2 N    1.823     8 N    1.179     3 H    0.936
     2   7 N    2.998 --     1 C    1.823     5 H    0.952     8 N    0.154
     3   1 H    1.000 --     1 C    0.936
     4   8 O    2.007 --     7 C    1.022     6 H    0.872
     5   1 H    0.979 --     2 N    0.952
     6   1 H    0.893 --     4 O    0.872
     7   6 C    3.933 --     4 O    1.022     8 N    0.979    10 O    0.947
                             9 H    0.944
     8   7 N    3.348 --     1 C    1.179     7 C    0.979    12 H    0.929
                             2 N    0.154
     9   1 H    0.998 --     7 C    0.944
    10   8 O    2.289 --    13 C    1.092     7 C    0.947    14 N    0.131
    11   1 H    0.971 --    14 N    0.945
    12   1 H    0.961 --     8 N    0.929
    13   6 C    3.929 --    14 N    1.879    10 O    1.092    15 H    0.929
    14   7 N    3.026 --    13 C    1.879    11 H    0.945    10 O    0.131
    15   1 H    1.000 --    13 C    0.929
 ---------------------------------------------------------------------------

molecular dipole:
                 x           y           z       tot (Debye)
 q only:       -0.362      -0.061      -0.162
   full:       -0.440      -0.219      -0.215       1.362

 projected vibrational frequencies (cm⁻¹)
eigval :       -0.00    -0.00    -0.00     0.00     0.00     0.00
eigval :       45.13    86.27   107.08   120.34   204.20   217.81
eigval :      333.86   404.99   429.08   527.88   559.90   620.15
eigval :      727.46   774.85   776.20   929.02   967.86   981.38
eigval :     1023.06  1078.26  1095.11  1107.99  1187.99  1243.81
eigval :     1258.13  1287.47  1311.30  1337.86  1369.63  1406.71
eigval :     1722.91  1742.02  2773.04  2853.70  2880.67  3397.04
eigval :     3406.34  3443.40  3505.00

   temp. (K)  partition function   enthalpy   heat capacity  entropy
                                   cal/mol     cal/K/mol   cal/K/mol   J/K/mol
 298.15  VIB   489.                 3906.079     24.385     24.470
         ROT  0.419E+06              888.752      2.981     28.706
         INT  0.205E+09             4794.831     27.366     53.176
         TR   0.123E+28             1481.254      4.968     40.170
         TOT                        6276.0848    32.3342    93.3461   390.5603

       T/K    H(0)-H(T)+PV         H(T)/Eh          T*S/Eh         G(T)/Eh
   ------------------------------------------------------------------------
    298.15    0.100016E-01    0.122190E+00    0.443518E-01    0.778379E-01
   ------------------------------------------------------------------------

         :::::::::::::::::::::::::::::::::::::::::::::::::::::
         ::                  THERMODYNAMIC                  ::
         :::::::::::::::::::::::::::::::::::::::::::::::::::::
         :: total free energy         -26.764572561988 Eh   ::
         ::.................................................::
         :: total energy              -26.842410475813 Eh   ::
         :: zero point energy           0.112188103472 Eh   ::
         :: G(RRHO) w/o ZPVE           -0.034350189647 Eh   ::
         :: G(RRHO) contrib.            0.077837913825 Eh   ::
         :::::::::::::::::::::::::::::::::::::::::::::::::::::

           -------------------------------------------------
          | TOTAL ENERGY              -26.842410475813 Eh   |
          | TOTAL ENTHALPY            -26.720220794587 Eh   |
          | TOTAL FREE ENERGY         -26.764572561988 Eh   |
          | GRADIENT NORM               0.000016092556 Eh/α |
          | HOMO-LUMO GAP               3.835718713249 eV   |
           -------------------------------------------------

 * finished run on 2025/01/10 at 14:24:28.224
normal termination of xtb
