   * xtb version 6.7.1 (edcfbbe) compiled by 'albert@albert-system' on 2024-07-22

   ID    Z sym.   atoms
    1    6 C      1, 7, 13
    2    7 N      2, 8, 14
    3    1 H      3, 5, 6, 9, 11, 12, 15
    4    8 O      4, 10

          program call               : /home/adpal/xtb-dist/bin/xtb ./results/p_{0,22}_coordinatesxTB.xyz --ohess --uhf 1 --parallel 8
          :  Hamiltonian                  GFN2-xTB          :
 * total energy  :   -26.8453805 Eh     change       -0.1776357E-13 Eh
   *** GEOMETRY OPTIMIZATION CONVERGED AFTER 1 ITERATIONS ***

 final structure:
================
15
 xtb: 6.7.1 (edcfbbe)
C            4.69412287264386        0.26574311512364        1.37754400284661
N            5.09611548170368        0.78408012475141        2.45364153591686
H            5.30840507385574        0.07645049400396        0.48326727563852
O            1.00945031956136        3.52444865802583        1.53808128154370
H            0.80781075261314        1.75265510617917        3.49962670656264
H            1.76179047031753        3.76267683980790        2.09677612073453
C            0.89204039696404        2.14642971709651        1.50921360743429
N            0.27707495967002        1.55027461698699        2.65836961020688
H            0.27798233148240        1.90500768209353        0.62719606486408
O            2.19809661873987        1.62794669972935        1.37339391548398
H            6.07838078084597        1.04387586922378        2.45772761827749
H           -0.67060145499168        1.88298248840888        2.77686889576264
C            2.34389760410909        0.29493126829195        1.30525417224030
N            3.45056916112989       -0.28479152537931        1.24609333142191
H            1.43094463135488       -0.29152115434411        1.25977586106537

          :  Hamiltonian                  GFN2-xTB          :
         :: gradient norm              0.000027224172 Eh/a0 ::
         :: HOMO-LUMO gap              3.288740959154 eV    ::
         :: SCC energy               -27.119985956812 Eh    ::
         :: -> dispersion             -0.008969888109 Eh    ::
         :: repulsion energy           0.274605455889 Eh    ::

    * Orbital Energies and Occupations

         #    Occupation            Energy/Eh            Energy/eV
      -------------------------------------------------------------
         1        2.0000           -0.7540589             -20.5190
       ...           ...                  ...                  ...
        11        2.0000           -0.5643175             -15.3559
        12        2.0000           -0.5528501             -15.0438
        13        2.0000           -0.5348546             -14.5541
        14        2.0000           -0.5317809             -14.4705
        15        2.0000           -0.5133214             -13.9682
        16        2.0000           -0.5042368             -13.7210
        17        2.0000           -0.4931933             -13.4205
        18        2.0000           -0.4714353             -12.8284
        19        2.0000           -0.4652061             -12.6589
        20        2.0000           -0.4343295             -11.8187
        21        2.0000           -0.4176827             -11.3657
        22        2.0000           -0.4002443             -10.8912
        23        2.0000           -0.3724422             -10.1347 (HOMO)
        24                         -0.2515832              -6.8459 (LUMO)
        25                         -0.2035030              -5.5376
        26                          0.0115062               0.3131
        27                          0.0407128               1.1079
        28                          0.0530258               1.4429
        29                          0.0893871               2.4323
        30                          0.1116380               3.0378
        31                          0.1235064               3.3608
        32                          0.1329800               3.6186
        33                          0.1713735               4.6633
        34                          0.2079110               5.6575
       ...                                ...                  ...
        39                          0.6349619              17.2782
      -------------------------------------------------------------
                  HL-Gap            0.1208590 Eh            3.2887 eV

     #   Z          covCN         q      C6AA      α(0)
     1   6 C        2.774     0.170    24.338     8.080
     2   7 N        1.781    -0.339    29.634     8.062
     3   1 H        0.923     0.010     2.895     2.661
     4   8 O        1.657    -0.440    21.635     6.279
     5   1 H        0.860     0.170     1.273     1.768
     6   1 H        0.805     0.321     0.660     1.276
     7   6 C        3.560     0.319    16.558     5.934
     8   7 N        2.629    -0.375    29.683     8.092
     9   1 H        0.923     0.044     2.402     2.424
    10   8 O        1.706    -0.271    18.488     5.805
    11   1 H        0.860     0.142     1.458     1.892
    12   1 H        0.860     0.171     1.266     1.763
    13   6 C        2.747     0.219    23.375     7.917
    14   7 N        1.832    -0.199    26.137     7.576
    15   1 H        0.925     0.059     2.216     2.328

Wiberg/Mayer (AO) data.
largest (>0.10) Wiberg bond orders for each atom

     #   Z sym  total        # sym  WBO       # sym  WBO       # sym  WBO
 ---------------------------------------------------------------------------
     1   6 C    3.965 --     2 N    1.844    14 N    1.156     3 H    0.925
     2   7 N    3.008 --     1 C    1.844    11 H    0.953    14 N    0.111
     3   1 H    1.000 --     1 C    0.925
     4   8 O    1.992 --     7 C    1.005     6 H    0.876
     5   1 H    0.971 --     8 N    0.953
     6   1 H    0.897 --     4 O    0.876
     7   6 C    3.928 --     8 N    1.021     4 O    1.005     9 H    0.945
                            10 O    0.932
     8   7 N    3.026 --     7 C    1.021    12 H    0.954     5 H    0.953
     9   1 H    0.998 --     7 C    0.945
    10   8 O    2.290 --    13 C    1.095     7 C    0.932    14 N    0.145
    11   1 H    0.980 --     2 N    0.953
    12   1 H    0.971 --     8 N    0.954
    13   6 C    3.931 --    14 N    1.785    10 O    1.095    15 H    0.944
    14   7 N    3.254 --    13 C    1.785     1 C    1.156    10 O    0.145
                             2 N    0.111
    15   1 H    0.997 --    13 C    0.944
 ---------------------------------------------------------------------------

molecular dipole:
                 x           y           z       tot (Debye)
 q only:       -0.693       0.107       0.138
   full:       -0.551       0.454       0.006       1.814

 projected vibrational frequencies (cm⁻¹)
eigval :       -0.00    -0.00     0.00     0.00     0.00     0.00
eigval :       42.25    58.14   101.85   149.61   227.22   277.70
eigval :      311.40   327.14   408.55   482.24   535.28   590.31
eigval :      667.70   813.46   883.70   900.80   959.13   969.65
eigval :     1011.08  1060.50  1090.87  1117.57  1160.97  1203.90
eigval :     1219.87  1297.54  1316.26  1324.53  1362.07  1532.05
eigval :     1690.56  1763.03  2803.82  2892.74  3008.95  3360.75
eigval :     3401.05  3460.22  3503.27

   temp. (K)  partition function   enthalpy   heat capacity  entropy
                                   cal/mol     cal/K/mol   cal/K/mol   J/K/mol
 298.15  VIB   627.                 3965.722     24.412     24.715
         ROT  0.399E+06              888.752      2.981     28.608
         INT  0.250E+09             4854.474     27.393     53.323
         TR   0.123E+28             1481.254      4.968     40.170
         TOT                        6335.7281    32.3610    93.4931   391.1750

       T/K    H(0)-H(T)+PV         H(T)/Eh          T*S/Eh         G(T)/Eh
   ------------------------------------------------------------------------
    298.15    0.100966E-01    0.122382E+00    0.444216E-01    0.779608E-01
   ------------------------------------------------------------------------

         :::::::::::::::::::::::::::::::::::::::::::::::::::::
         ::                  THERMODYNAMIC                  ::
         :::::::::::::::::::::::::::::::::::::::::::::::::::::
         :: total free energy         -26.767419722457 Eh   ::
         ::.................................................::
         :: total energy              -26.845380500923 Eh   ::
         :: zero point energy           0.112285725991 Eh   ::
         :: G(RRHO) w/o ZPVE           -0.034324947526 Eh   ::
         :: G(RRHO) contrib.            0.077960778465 Eh   ::
         :::::::::::::::::::::::::::::::::::::::::::::::::::::

           -------------------------------------------------
          | TOTAL ENERGY              -26.845380500923 Eh   |
          | TOTAL ENTHALPY            -26.722998149473 Eh   |
          | TOTAL FREE ENERGY         -26.767419722457 Eh   |
          | GRADIENT NORM               0.000027215187 Eh/α |
          | HOMO-LUMO GAP               3.288740384511 eV   |
           -------------------------------------------------

 * finished run on 2025/01/10 at 14:24:31.735
normal termination of xtb
