   * xtb version 6.7.1 (edcfbbe) compiled by 'albert@albert-system' on 2024-07-22

   ID    Z sym.   atoms
    1    8 O      1, 10, 13
    2    1 H      2, 3, 6, 9, 11, 12, 14, 15, 18
    3    6 C      4, 7, 16
    4    7 N      5, 8, 17

          program call               : /home/adpal/xtb-dist/bin/xtb ./results/p_{0,57}_coordinatesxTB.xyz --ohess --uhf 1 --parallel 8
          :  Hamiltonian                  GFN2-xTB          :
 * total energy  :   -31.9672632 Eh     change        0.2842171E-13 Eh
   *** GEOMETRY OPTIMIZATION CONVERGED AFTER 1 ITERATIONS ***

 final structure:
================
18
 xtb: 6.7.1 (edcfbbe)
O            2.31507221185877       -0.45659567050395        0.71633206555039
H            3.76145360053519       -3.29655082812116        0.99221468596658
H            4.11263006006464       -1.88670145230472        1.77063419673958
C            2.80574609866318       -1.66293140879378        0.22949030872259
N            3.37768178791270       -2.41878553253434        1.31951626971464
H            3.51277000830568       -1.37843679840786       -0.57090333237821
C            1.37084066143178       -2.38455431857742       -1.63895520400789
N            1.78440523704378       -2.48680771880553       -0.36119338847715
H            2.03120221534116       -1.79479285700420       -2.28703632193481
O            0.04023955178212       -4.15120346392863       -4.00075186294832
H            1.15684929204936       -2.95366964778343        0.27834477920747
H           -0.44581736672993       -4.76501983076024       -3.43479564351247
O           -1.30069145464125       -2.32653045687740       -3.54822469420882
H            1.76222099840284       -0.63543754496339        1.48838456454929
H           -1.87968609326734       -2.75959337920564       -2.90742568195000
C           -0.03289542003131       -2.88250714889754       -3.43363959858233
N            0.32212047433901       -2.96352756720590       -2.04873527447048
H            0.63620813693949       -2.24633437532430       -4.03427586798068

          :  Hamiltonian                  GFN2-xTB          :
         :: gradient norm              0.000044835494 Eh/a0 ::
         :: HOMO-LUMO gap              4.554916764250 eV    ::
         :: SCC energy               -32.246610459002 Eh    ::
         :: -> dispersion             -0.010729122575 Eh    ::
         :: repulsion energy           0.279347218599 Eh    ::

    * Orbital Energies and Occupations

         #    Occupation            Energy/Eh            Energy/eV
      -------------------------------------------------------------
         1        2.0000           -0.7243189             -19.7097
       ...           ...                  ...                  ...
        15        2.0000           -0.5388488             -14.6628
        16        2.0000           -0.5273601             -14.3502
        17        2.0000           -0.5161909             -14.0463
        18        2.0000           -0.5119530             -13.9310
        19        2.0000           -0.4991867             -13.5836
        20        2.0000           -0.4899068             -13.3310
        21        2.0000           -0.4713664             -12.8265
        22        2.0000           -0.4619891             -12.5714
        23        2.0000           -0.4354613             -11.8495
        24        2.0000           -0.4337967             -11.8042
        25        2.0000           -0.4126059             -11.2276
        26        2.0000           -0.3999616             -10.8835
        27        2.0000           -0.3859782             -10.5030 (HOMO)
        28                         -0.2185881              -5.9481 (LUMO)
        29                         -0.0089328              -0.2431
        30                          0.0355731               0.9680
        31                          0.0626818               1.7057
        32                          0.0725983               1.9755
        33                          0.0894781               2.4348
        34                          0.1049986               2.8572
        35                          0.1202034               3.2709
        36                          0.1402636               3.8168
        37                          0.1425624               3.8793
        38                          0.1514047               4.1199
       ...                                ...                  ...
        45                          0.5792191              15.7614
      -------------------------------------------------------------
                  HL-Gap            0.1673901 Eh            4.5549 eV

     #   Z          covCN         q      C6AA      α(0)
     1   8 O        1.657    -0.438    21.601     6.274
     2   1 H        0.860     0.160     1.333     1.809
     3   1 H        0.860     0.167     1.288     1.778
     4   6 C        3.596     0.252    17.225     6.007
     5   7 N        2.637    -0.370    29.542     8.072
     6   1 H        0.922     0.034     2.536     2.491
     7   6 C        2.789     0.149    24.751     8.149
     8   7 N        2.701    -0.191    25.138     7.446
     9   1 H        0.924     0.013     2.842     2.637
    10   8 O        1.657    -0.450    21.845     6.309
    11   1 H        0.860     0.196     1.129     1.665
    12   1 H        0.805     0.305     0.705     1.319
    13   8 O        1.657    -0.448    21.794     6.302
    14   1 H        0.805     0.313     0.684     1.299
    15   1 H        0.805     0.306     0.702     1.316
    16   6 C        3.573     0.325    16.390     5.887
    17   7 N        1.835    -0.347    29.863     8.098
    18   1 H        0.923     0.023     2.696     2.568

Wiberg/Mayer (AO) data.
largest (>0.10) Wiberg bond orders for each atom

     #   Z sym  total        # sym  WBO       # sym  WBO       # sym  WBO
 ---------------------------------------------------------------------------
     1   8 O    1.992 --     4 C    1.001    14 H    0.882
     2   1 H    0.974 --     5 N    0.959
     3   1 H    0.971 --     5 N    0.956
     4   6 C    3.952 --     5 N    1.009     1 O    1.001     8 N    0.980
                             6 H    0.942
     5   7 N    3.009 --     4 C    1.009     2 H    0.959     3 H    0.956
     6   1 H    0.999 --     4 C    0.942
     7   6 C    3.965 --    17 N    1.726     8 N    1.241     9 H    0.931
     8   7 N    3.410 --     7 C    1.241     4 C    0.980    11 H    0.927
                            17 N    0.161
     9   1 H    1.000 --     7 C    0.931
    10   8 O    1.984 --    16 C    0.985    12 H    0.887
    11   1 H    0.962 --     8 N    0.927
    12   1 H    0.907 --    10 O    0.887
    13   8 O    1.985 --    16 C    0.990    15 H    0.886
    14   1 H    0.902 --     1 O    0.882
    15   1 H    0.906 --    13 O    0.886
    16   6 C    3.935 --    17 N    0.991    13 O    0.990    10 O    0.985
                            18 H    0.941
    17   7 N    3.021 --     7 C    1.726    16 C    0.991     8 N    0.161
    18   1 H    0.999 --    16 C    0.941
 ---------------------------------------------------------------------------

molecular dipole:
                 x           y           z       tot (Debye)
 q only:        0.501      -0.467       1.813
   full:        0.806      -0.492       1.901       5.395

 projected vibrational frequencies (cm⁻¹)
eigval :       -0.00    -0.00     0.00     0.00     0.00     0.00
eigval :       32.95    34.58   100.46   115.69   186.98   240.16
eigval :      271.37   284.05   303.16   369.54   402.56   446.94
eigval :      482.28   517.82   548.33   586.44   600.43   625.47
eigval :      909.57   933.56   974.37   982.83  1026.38  1057.72
eigval :     1085.68  1105.88  1128.39  1182.72  1195.16  1221.81
eigval :     1244.25  1274.53  1316.92  1326.07  1335.19  1341.06
eigval :     1429.01  1523.95  1737.64  2825.19  2862.97  2882.76
eigval :     3417.07  3436.17  3452.14  3512.41  3512.83  3516.22

   temp. (K)  partition function   enthalpy   heat capacity  entropy
                                   cal/mol     cal/K/mol   cal/K/mol   J/K/mol
 298.15  VIB  0.422E+04             5048.329     30.858     30.718
         ROT  0.713E+06              888.752      2.981     29.764
         INT  0.301E+10             5937.081     33.839     60.482
         TR   0.152E+28             1481.254      4.968     40.597
         TOT                        7418.3353    38.8073   101.0790   422.9145

       T/K    H(0)-H(T)+PV         H(T)/Eh          T*S/Eh         G(T)/Eh
   ------------------------------------------------------------------------
    298.15    0.118219E-01    0.150561E+00    0.480259E-01    0.102536E+00
   ------------------------------------------------------------------------

         :::::::::::::::::::::::::::::::::::::::::::::::::::::
         ::                  THERMODYNAMIC                  ::
         :::::::::::::::::::::::::::::::::::::::::::::::::::::
         :: total free energy         -31.864727654757 Eh   ::
         ::.................................................::
         :: total energy              -31.967263240404 Eh   ::
         :: zero point energy           0.138739611477 Eh   ::
         :: G(RRHO) w/o ZPVE           -0.036204025831 Eh   ::
         :: G(RRHO) contrib.            0.102535585647 Eh   ::
         :::::::::::::::::::::::::::::::::::::::::::::::::::::

           -------------------------------------------------
          | TOTAL ENERGY              -31.967263240404 Eh   |
          | TOTAL ENTHALPY            -31.816701759099 Eh   |
          | TOTAL FREE ENERGY         -31.864727654757 Eh   |
          | GRADIENT NORM               0.000044835831 Eh/α |
          | HOMO-LUMO GAP               4.554917045099 eV   |
           -------------------------------------------------

 * finished run on 2025/01/10 at 14:26:30.523
normal termination of xtb
