   * xtb version 6.7.1 (edcfbbe) compiled by 'albert@albert-system' on 2024-07-22

   ID    Z sym.   atoms
    1    8 O      1, 6
    2    1 H      2, 5, 8
    3    6 C      3, 7
    4    7 N      4

          program call               : /home/adpal/xtb-dist/bin/xtb ./results/p_{0,55}_coordinatesxTB.xyz --ohess --uhf 1 --parallel 8
          :  Hamiltonian                  GFN2-xTB          :
 * total energy  :   -16.8540398 Eh     change        0.1776357E-13 Eh
   *** GEOMETRY OPTIMIZATION CONVERGED AFTER 1 ITERATIONS ***

 final structure:
================
8
 xtb: 6.7.1 (edcfbbe)
O            0.97634661109334        0.01962769728814        0.06763317930295
H            2.44456411349467        1.55976129656436        1.38776463796707
C            2.17133941589150        0.02085659697598        0.06748796171555
N            2.93731496811458        0.88454735586294        0.80783097918656
H            2.78876134404803       -0.67315633698849       -0.52862549979943
O            4.94318703994836        1.68750099082863        1.49567386272628
C            4.30797837496793        0.91923302019821        0.83668098652606
H            4.75541813244160        0.15377937927022        0.17934389237495

          :  Hamiltonian                  GFN2-xTB          :
         :: gradient norm              0.000016969350 Eh/a0 ::
         :: HOMO-LUMO gap              3.884680382449 eV    ::
         :: SCC energy               -17.024181138891 Eh    ::
         :: -> dispersion             -0.003510909576 Eh    ::
         :: repulsion energy           0.170141377515 Eh    ::

    * Orbital Energies and Occupations

         #    Occupation            Energy/Eh            Energy/eV
      -------------------------------------------------------------
         1        2.0000           -0.7534058             -20.5012
         2        2.0000           -0.7491769             -20.3861
         3        2.0000           -0.7192225             -19.5710
         4        2.0000           -0.6690890             -18.2068
         5        2.0000           -0.6526386             -17.7592
         6        2.0000           -0.6144275             -16.7194
         7        2.0000           -0.6000503             -16.3282
         8        2.0000           -0.5893721             -16.0376
         9        2.0000           -0.5631456             -15.3240
        10        2.0000           -0.5549435             -15.1008
        11        2.0000           -0.5438915             -14.8000
        12        2.0000           -0.4756183             -12.9422
        13        2.0000           -0.4584552             -12.4752
        14        2.0000           -0.4406173             -11.9898 (HOMO)
        15                         -0.2978580              -8.1051 (LUMO)
        16                         -0.2295203              -6.2456
        17                         -0.0069993              -0.1905
        18                          0.1107756               3.0144
        19                          0.1234370               3.3589
        20                          0.1612677               4.3883
        21                          0.3391771               9.2295
        22                          0.5940958              16.1662
        23                          0.6393509              17.3976
      -------------------------------------------------------------
                  HL-Gap            0.1427594 Eh            3.8847 eV

     #   Z          covCN         q      C6AA      α(0)
     1   8 O        0.858    -0.332    20.368     6.051
     2   1 H        0.860     0.225     0.987     1.556
     3   6 C        2.697     0.260    22.620     7.784
     4   7 N        2.683    -0.152    24.297     7.321
     5   1 H        0.923     0.036     2.506     2.476
     6   8 O        0.858    -0.332    20.368     6.051
     7   6 C        2.697     0.260    22.620     7.784
     8   1 H        0.923     0.036     2.506     2.476

Wiberg/Mayer (AO) data.
largest (>0.10) Wiberg bond orders for each atom

     #   Z sym  total        # sym  WBO       # sym  WBO       # sym  WBO
 ---------------------------------------------------------------------------
     1   8 O    2.098 --     3 C    1.828     4 N    0.151
     2   1 H    0.949 --     4 N    0.911
     3   6 C    3.941 --     1 O    1.828     4 N    1.160     5 H    0.919
     4   7 N    3.547 --     7 C    1.160     3 C    1.160     2 H    0.911
                             6 O    0.151     1 O    0.151
     5   1 H    0.999 --     3 C    0.919
     6   8 O    2.098 --     7 C    1.828     4 N    0.151
     7   6 C    3.941 --     6 O    1.828     4 N    1.160     8 H    0.919
     8   1 H    0.999 --     7 C    0.919
 ---------------------------------------------------------------------------

molecular dipole:
                 x           y           z       tot (Debye)
 q only:        0.172      -0.236      -0.203
   full:        0.249      -0.342      -0.294       1.309

 projected vibrational frequencies (cm⁻¹)
eigval :       -0.00    -0.00     0.00     0.00     0.00     0.00
eigval :      129.80   237.13   276.11   536.78   590.56   746.64
eigval :      934.20   962.96  1167.20  1177.77  1269.64  1372.46
eigval :     1401.08  1781.82  1799.59  2811.30  2817.45  3353.91

   temp. (K)  partition function   enthalpy   heat capacity  entropy
                                   cal/mol     cal/K/mol   cal/K/mol   J/K/mol
 298.15  VIB   5.22                 1413.344     10.126      8.017
         ROT  0.271E+05              888.752      2.981     23.264
         INT  0.141E+06             2302.097     13.107     31.281
         TR   0.604E+27             1481.254      4.968     38.764
         TOT                        3783.3504    18.0754    70.0452   293.0689

       T/K    H(0)-H(T)+PV         H(T)/Eh          T*S/Eh         G(T)/Eh
   ------------------------------------------------------------------------
    298.15    0.602915E-02    0.592617E-01    0.332807E-01    0.259810E-01
   ------------------------------------------------------------------------

         :::::::::::::::::::::::::::::::::::::::::::::::::::::
         ::                  THERMODYNAMIC                  ::
         :::::::::::::::::::::::::::::::::::::::::::::::::::::
         :: total free energy         -16.828058757086 Eh   ::
         ::.................................................::
         :: total energy              -16.854039761377 Eh   ::
         :: zero point energy           0.053232564041 Eh   ::
         :: G(RRHO) w/o ZPVE           -0.027251559750 Eh   ::
         :: G(RRHO) contrib.            0.025981004291 Eh   ::
         :::::::::::::::::::::::::::::::::::::::::::::::::::::

           -------------------------------------------------
          | TOTAL ENERGY              -16.854039761377 Eh   |
          | TOTAL ENTHALPY            -16.794778044662 Eh   |
          | TOTAL FREE ENERGY         -16.828058757086 Eh   |
          | GRADIENT NORM               0.000016967331 Eh/α |
          | HOMO-LUMO GAP               3.884680382657 eV   |
           -------------------------------------------------

 * finished run on 2025/01/10 at 14:26:20.860
normal termination of xtb
