   * xtb version 6.7.1 (edcfbbe) compiled by 'albert@albert-system' on 2024-07-22

   ID    Z sym.   atoms
    1    8 O      1, 2, 9
    2    1 H      3, 5, 8, 10, 11, 14
    3    6 C      4, 6, 12
    4    7 N      7, 13

          program call               : /home/adpal/xtb-dist/bin/xtb ./results/p_{0,60}_coordinatesxTB.xyz --ohess --uhf 1 --parallel 8
          :  Hamiltonian                  GFN2-xTB          :
 * total energy  :   -27.4986370 Eh     change        0.1065814E-13 Eh
   *** GEOMETRY OPTIMIZATION CONVERGED AFTER 1 ITERATIONS ***

 final structure:
================
14
 xtb: 6.7.1 (edcfbbe)
O            2.84184210170946       -4.00978057574822       -1.78676279441746
O            0.92538172704896       -5.19296667307233       -1.64861143177388
H            2.25690865122809       -1.57919575760629        0.03049615692270
C            1.90957435686075       -4.84850908235664       -2.22486087830495
H            2.20985041163593       -5.19969065287868       -3.22511403389522
C            4.98517088861037       -2.80028288098944       -0.21398068714528
N            6.10768504119393       -3.11135190087952        0.26223303548238
H            4.76753807048700       -2.02773978690492       -0.96040509080532
O            2.23819620255281       -2.09820346731469       -0.78176079356302
H            6.88666678342923       -2.56701662048043       -0.09112962976884
H            4.03627992088352       -4.24445387137720        0.80473495635320
C            2.64537442761675       -3.39296325221168       -0.51235647143950
N            3.85201027409461       -3.42363949028215        0.24545083475286
H            1.86838114264856       -3.96250598789805        0.02909682760230

          :  Hamiltonian                  GFN2-xTB          :
         :: gradient norm              0.000046209528 Eh/a0 ::
         :: HOMO-LUMO gap              3.365304128943 eV    ::
         :: SCC energy               -27.748732066019 Eh    ::
         :: -> dispersion             -0.008550825902 Eh    ::
         :: repulsion energy           0.250095058748 Eh    ::

    * Orbital Energies and Occupations

         #    Occupation            Energy/Eh            Energy/eV
      -------------------------------------------------------------
         1        2.0000           -0.7770835             -21.1455
       ...           ...                  ...                  ...
        11        2.0000           -0.5980291             -16.2732
        12        2.0000           -0.5880970             -16.0029
        13        2.0000           -0.5664871             -15.4149
        14        2.0000           -0.5495802             -14.9548
        15        2.0000           -0.5262900             -14.3211
        16        2.0000           -0.5144368             -13.9985
        17        2.0000           -0.5114216             -13.9165
        18        2.0000           -0.5029178             -13.6851
        19        2.0000           -0.4951954             -13.4750
        20        2.0000           -0.4664559             -12.6929
        21        2.0000           -0.4480730             -12.1927
        22        2.0000           -0.4139849             -11.2651
        23        2.0000           -0.3848907             -10.4734 (HOMO)
        24                         -0.2612181              -7.1081 (LUMO)
        25                         -0.2231603              -6.0725
        26                         -0.0156220              -0.4251
        27                          0.0013883               0.0378
        28                          0.0526733               1.4333
        29                          0.0845723               2.3013
        30                          0.1143001               3.1103
        31                          0.1357983               3.6953
        32                          0.1557157               4.2372
        33                          0.1856245               5.0511
        34                          0.2107113               5.7337
       ...                                ...                  ...
        38                          0.6437018              17.5160
      -------------------------------------------------------------
                  HL-Gap            0.1236727 Eh            3.3653 eV

     #   Z          covCN         q      C6AA      α(0)
     1   8 O        1.703    -0.254    18.211     5.762
     2   8 O        0.856    -0.353    20.758     6.108
     3   1 H        0.805     0.324     0.653     1.269
     4   6 C        2.659     0.342    21.187     7.531
     5   1 H        0.923     0.051     2.307     2.375
     6   6 C        2.755     0.152    24.691     8.137
     7   7 N        1.786    -0.354    30.027     8.116
     8   1 H        0.924     0.021     2.719     2.579
     9   8 O        1.658    -0.419    21.230     6.220
    10   1 H        0.860     0.149     1.408     1.859
    11   1 H        0.860     0.196     1.128     1.663
    12   6 C        3.568     0.314    16.563     5.925
    13   7 N        2.695    -0.216    25.712     7.531
    14   1 H        0.922     0.047     2.358     2.401

Wiberg/Mayer (AO) data.
largest (>0.10) Wiberg bond orders for each atom

     #   Z sym  total        # sym  WBO       # sym  WBO       # sym  WBO
 ---------------------------------------------------------------------------
     1   8 O    2.331 --     4 C    1.147    12 C    0.911     2 O    0.188
     2   8 O    2.090 --     4 C    1.827     1 O    0.188
     3   1 H    0.895 --     9 O    0.876
     4   6 C    3.911 --     2 O    1.827     1 O    1.147     5 H    0.913
     5   1 H    0.997 --     4 C    0.913
     6   6 C    3.959 --     7 N    1.838    13 N    1.160     8 H    0.936
     7   7 N    3.001 --     6 C    1.838    10 H    0.951    13 N    0.142
     8   1 H    1.000 --     6 C    0.936
     9   8 O    1.990 --    12 C    1.009     3 H    0.876
    10   1 H    0.978 --     7 N    0.951
    11   1 H    0.962 --    13 N    0.930
    12   6 C    3.926 --    13 N    1.011     9 O    1.009    14 H    0.942
                             1 O    0.911
    13   7 N    3.345 --     6 C    1.160    12 C    1.011    11 H    0.930
                             7 N    0.142
    14   1 H    0.998 --    12 C    0.942
 ---------------------------------------------------------------------------

molecular dipole:
                 x           y           z       tot (Debye)
 q only:        0.206       0.379       0.440
   full:        0.252       0.525       0.236       1.597

 projected vibrational frequencies (cm⁻¹)
eigval :       -0.00    -0.00    -0.00     0.00     0.00     0.00
eigval :       14.19    75.95   118.72   169.48   199.33   233.96
eigval :      248.10   408.92   437.08   516.77   621.39   692.45
eigval :      757.72   784.12   930.91   938.72   972.48   986.84
eigval :     1083.88  1132.29  1147.38  1206.94  1251.32  1291.23
eigval :     1308.22  1325.19  1343.54  1398.57  1727.40  1802.66
eigval :     2843.09  2846.29  2877.24  3395.50  3436.48  3540.40

   temp. (K)  partition function   enthalpy   heat capacity  entropy
                                   cal/mol     cal/K/mol   cal/K/mol   J/K/mol
 298.15  VIB  0.122E+04             3838.345     22.862     24.344
         ROT  0.376E+06              888.752      2.981     28.493
         INT  0.460E+09             4727.097     25.843     52.838
         TR   0.124E+28             1481.254      4.968     40.195
         TOT                        6208.3508    30.8112    93.0330   389.2502

       T/K    H(0)-H(T)+PV         H(T)/Eh          T*S/Eh         G(T)/Eh
   ------------------------------------------------------------------------
    298.15    0.989364E-02    0.110281E+00    0.442030E-01    0.660775E-01
   ------------------------------------------------------------------------

         :::::::::::::::::::::::::::::::::::::::::::::::::::::
         ::                  THERMODYNAMIC                  ::
         :::::::::::::::::::::::::::::::::::::::::::::::::::::
         :: total free energy         -27.432559476050 Eh   ::
         ::.................................................::
         :: total energy              -27.498637007272 Eh   ::
         :: zero point energy           0.100386891600 Eh   ::
         :: G(RRHO) w/o ZPVE           -0.034309360378 Eh   ::
         :: G(RRHO) contrib.            0.066077531221 Eh   ::
         :::::::::::::::::::::::::::::::::::::::::::::::::::::

           -------------------------------------------------
          | TOTAL ENERGY              -27.498637007272 Eh   |
          | TOTAL ENTHALPY            -27.388356478847 Eh   |
          | TOTAL FREE ENERGY         -27.432559476050 Eh   |
          | GRADIENT NORM               0.000046216724 Eh/α |
          | HOMO-LUMO GAP               3.365304149181 eV   |
           -------------------------------------------------

 * finished run on 2025/01/10 at 14:26:40.564
normal termination of xtb
