   * xtb version 6.7.1 (edcfbbe) compiled by 'albert@albert-system' on 2024-07-22

   ID    Z sym.   atoms
    1    8 O      1, 4
    2    6 C      2, 6
    3    1 H      3, 5, 8
    4    7 N      7

          program call               : /home/adpal/xtb-dist/bin/xtb ./results/p_{0,53}_coordinatesxTB.xyz --ohess --uhf 1 --parallel 8
          :  Hamiltonian                  GFN2-xTB          :
 * total energy  :   -16.8413693 Eh     change        0.2486900E-13 Eh
   *** GEOMETRY OPTIMIZATION CONVERGED AFTER 1 ITERATIONS ***

 final structure:
================
8
 xtb: 6.7.1 (edcfbbe)
O            2.76458973221304       -1.02269233285608       -0.30735671338183
C            2.35527988256474        0.05001824295192        0.09342982264913
H            1.32354942746829        0.18311121972226        0.44697623012341
O            4.99257442902749        0.22486275094734       -0.67850144911560
H            4.40301314190031       -0.58207498331757       -0.70159106999830
C            4.29788911088076        1.21951128032058       -0.20960214646712
N            3.07082051921451        1.21929251608778        0.17038282708183
H            4.84487375673077        2.15690130614352       -0.13978750089178

          :  Hamiltonian                  GFN2-xTB          :
         :: gradient norm              0.000035419516 Eh/a0 ::
         :: HOMO-LUMO gap              2.836950463645 eV    ::
         :: SCC energy               -16.996081593468 Eh    ::
         :: -> dispersion             -0.003705704853 Eh    ::
         :: repulsion energy           0.154712264625 Eh    ::

    * Orbital Energies and Occupations

         #    Occupation            Energy/Eh            Energy/eV
      -------------------------------------------------------------
         1        2.0000           -0.7652716             -20.8241
         2        2.0000           -0.7395655             -20.1246
         3        2.0000           -0.6975171             -18.9804
         4        2.0000           -0.6717750             -18.2799
         5        2.0000           -0.6463592             -17.5883
         6        2.0000           -0.5974560             -16.2576
         7        2.0000           -0.5893861             -16.0380
         8        2.0000           -0.5809640             -15.8088
         9        2.0000           -0.5567778             -15.1507
        10        2.0000           -0.5548839             -15.0992
        11        2.0000           -0.5306119             -14.4387
        12        2.0000           -0.4649597             -12.6522
        13        2.0000           -0.4328895             -11.7795
        14        2.0000           -0.4174206             -11.3586 (HOMO)
        15                         -0.3131646              -8.5216 (LUMO)
        16                         -0.2069872              -5.6324
        17                          0.0772005               2.1007
        18                          0.0930024               2.5307
        19                          0.1815537               4.9403
        20                          0.2022184               5.5026
        21                          0.2950809               8.0296
        22                          0.4594724              12.5029
        23                          0.6116775              16.6446
      -------------------------------------------------------------
                  HL-Gap            0.1042560 Eh            2.8370 eV

     #   Z          covCN         q      C6AA      α(0)
     1   8 O        0.856    -0.388    21.435     6.207
     2   6 C        2.751     0.283    22.207     7.717
     3   1 H        0.923     0.037     2.493     2.469
     4   8 O        1.655    -0.323    19.411     5.948
     5   1 H        0.800     0.370     0.544     1.159
     6   6 C        2.753     0.246    22.880     7.833
     7   7 N        1.822    -0.303    28.704     7.939
     8   1 H        0.925     0.078     2.000     2.212

Wiberg/Mayer (AO) data.
largest (>0.10) Wiberg bond orders for each atom

     #   Z sym  total        # sym  WBO       # sym  WBO       # sym  WBO
 ---------------------------------------------------------------------------
     1   8 O    2.094 --     2 C    1.763
     2   6 C    3.925 --     1 O    1.763     7 N    1.164     3 H    0.935
     3   1 H    0.999 --     2 C    0.935
     4   8 O    2.311 --     6 C    1.288     5 H    0.774     7 N    0.157
     5   1 H    0.863 --     4 O    0.774
     6   6 C    3.926 --     7 N    1.599     4 O    1.288     8 H    0.943
     7   7 N    3.036 --     6 C    1.599     2 C    1.164     4 O    0.157
     8   1 H    0.994 --     6 C    0.943
 ---------------------------------------------------------------------------

molecular dipole:
                 x           y           z       tot (Debye)
 q only:        0.312       0.429       0.013
   full:        0.274       0.279      -0.013       0.994

 projected vibrational frequencies (cm⁻¹)
eigval :       -0.00    -0.00     0.00     0.00     0.00     0.00
eigval :      117.10   288.60   388.16   527.71   831.06   853.60
eigval :      908.60   980.89  1061.14  1172.17  1259.15  1326.54
eigval :     1352.95  1583.42  1697.08  2873.01  2889.79  3013.38

   temp. (K)  partition function   enthalpy   heat capacity  entropy
                                   cal/mol     cal/K/mol   cal/K/mol   J/K/mol
 298.15  VIB   4.25                 1238.901      9.399      7.014
         ROT  0.599E+05              888.752      2.981     24.840
         INT  0.254E+06             2127.653     12.380     31.854
         TR   0.604E+27             1481.254      4.968     38.764
         TOT                        3608.9074    17.3482    70.6188   295.4692

       T/K    H(0)-H(T)+PV         H(T)/Eh          T*S/Eh         G(T)/Eh
   ------------------------------------------------------------------------
    298.15    0.575116E-02    0.584323E-01    0.335533E-01    0.248790E-01
   ------------------------------------------------------------------------

         :::::::::::::::::::::::::::::::::::::::::::::::::::::
         ::                  THERMODYNAMIC                  ::
         :::::::::::::::::::::::::::::::::::::::::::::::::::::
         :: total free energy         -16.816490343651 Eh   ::
         ::.................................................::
         :: total energy              -16.841369328843 Eh   ::
         :: zero point energy           0.052681116179 Eh   ::
         :: G(RRHO) w/o ZPVE           -0.027802130987 Eh   ::
         :: G(RRHO) contrib.            0.024878985192 Eh   ::
         :::::::::::::::::::::::::::::::::::::::::::::::::::::

           -------------------------------------------------
          | TOTAL ENERGY              -16.841369328843 Eh   |
          | TOTAL ENTHALPY            -16.782937052630 Eh   |
          | TOTAL FREE ENERGY         -16.816490343651 Eh   |
          | GRADIENT NORM               0.000035410637 Eh/α |
          | HOMO-LUMO GAP               2.836950283379 eV   |
           -------------------------------------------------

 * finished run on 2025/01/10 at 14:26:20.453
normal termination of xtb
