   * xtb version 6.7.1 (edcfbbe) compiled by 'albert@albert-system' on 2024-07-22

   ID    Z sym.   atoms
    1    8 O      1, 4, 13
    2    1 H      2, 3, 5, 6, 9, 12, 14, 15, 18
    3    6 C      7, 10, 16
    4    7 N      8, 11, 17

          program call               : /home/adpal/xtb-dist/bin/xtb ./results/p_{0,32}_coordinatesxTB.xyz --ohess --uhf 1 --parallel 8
          :  Hamiltonian                  GFN2-xTB          :
 * total energy  :   -31.9431284 Eh     change       -0.2131628E-13 Eh
   *** GEOMETRY OPTIMIZATION CONVERGED AFTER 1 ITERATIONS ***

 final structure:
================
18
 xtb: 6.7.1 (edcfbbe)
O            5.87135413836270        4.65309451838143       -3.36780905059034
H            8.51822398396455        1.01082281691520       -1.36135661150758
H            6.63551594132446        5.13878973061680       -3.03141684934322
O            5.44573324826307        3.53294540137848       -1.40350911619138
H            7.73493465781263        3.12698963821995       -2.18454100733614
H            4.61248427164017        4.01293791044074       -1.33815831223294
C            5.81041471900201        3.41533308773699       -2.75957912731165
N            7.06586487826604        2.73305649426127       -2.83650522645592
H            5.06376551522205        2.83792354601666       -3.32379926297148
C            6.99881518268754        1.29676110611822       -2.68813757610296
N            8.31420217458278        0.81927819689907       -2.33454906314433
H            6.20625021265532        0.99772101565409       -1.96736528605412
O            6.57912309165635        0.70363050339814       -3.88966066829049
H            7.59304072077383        0.71572418726661       -6.85279593820193
H            8.36705995385731       -0.18143252026173       -2.48560781198449
C            7.30449785010978        0.99051144291277       -4.98424656600787
N            7.00617398020990        0.44353861808661       -6.07190879048840
H            8.11656547960977        1.70701430595867       -4.79982373578495

          :  Hamiltonian                  GFN2-xTB          :
         :: gradient norm              0.000017821064 Eh/a0 ::
         :: HOMO-LUMO gap              4.316271964377 eV    ::
         :: SCC energy               -32.214258818549 Eh    ::
         :: -> dispersion             -0.011929138976 Eh    ::
         :: repulsion energy           0.271130394191 Eh    ::

    * Orbital Energies and Occupations

         #    Occupation            Energy/Eh            Energy/eV
      -------------------------------------------------------------
         1        2.0000           -0.7337159             -19.9654
       ...           ...                  ...                  ...
        15        2.0000           -0.5513887             -15.0040
        16        2.0000           -0.5349867             -14.5577
        17        2.0000           -0.5237978             -14.2533
        18        2.0000           -0.5138341             -13.9821
        19        2.0000           -0.4980604             -13.5529
        20        2.0000           -0.4879019             -13.2765
        21        2.0000           -0.4833311             -13.1521
        22        2.0000           -0.4611541             -12.5486
        23        2.0000           -0.4515627             -12.2876
        24        2.0000           -0.4247833             -11.5589
        25        2.0000           -0.4170724             -11.3491
        26        2.0000           -0.3995837             -10.8732
        27        2.0000           -0.3748886             -10.2012 (HOMO)
        28                         -0.2162686              -5.8850 (LUMO)
        29                         -0.0073803              -0.2008
        30                          0.0187953               0.5114
        31                          0.0436513               1.1878
        32                          0.0594943               1.6189
        33                          0.0722675               1.9665
        34                          0.0917267               2.4960
        35                          0.1125926               3.0638
        36                          0.1304259               3.5491
        37                          0.1426236               3.8810
        38                          0.1480891               4.0297
       ...                                ...                  ...
        45                          0.5912111              16.0877
      -------------------------------------------------------------
                  HL-Gap            0.1586201 Eh            4.3163 eV

     #   Z          covCN         q      C6AA      α(0)
     1   8 O        1.658    -0.440    21.645     6.281
     2   1 H        0.860     0.161     1.330     1.807
     3   1 H        0.805     0.313     0.683     1.298
     4   8 O        1.656    -0.478    22.429     6.393
     5   1 H        0.860     0.179     1.219     1.730
     6   1 H        0.805     0.311     0.690     1.305
     7   6 C        3.545     0.318    16.688     5.980
     8   7 N        2.684    -0.302    27.773     7.827
     9   1 H        0.923     0.039     2.468     2.457
    10   6 C        3.635     0.262    16.914     5.918
    11   7 N        2.634    -0.362    29.324     8.042
    12   1 H        0.921     0.013     2.847     2.639
    13   8 O        1.709    -0.253    18.191     5.759
    14   1 H        0.860     0.157     1.354     1.822
    15   1 H        0.860     0.170     1.272     1.766
    16   6 C        2.724     0.228    23.212     7.887
    17   7 N        1.774    -0.330    29.385     8.027
    18   1 H        0.923     0.016     2.800     2.617

Wiberg/Mayer (AO) data.
largest (>0.10) Wiberg bond orders for each atom

     #   Z sym  total        # sym  WBO       # sym  WBO       # sym  WBO
 ---------------------------------------------------------------------------
     1   8 O    1.993 --     7 C    1.007     3 H    0.881
     2   1 H    0.974 --    11 N    0.959
     3   1 H    0.902 --     1 O    0.881
     4   8 O    1.954 --     7 C    0.960     6 H    0.886
     5   1 H    0.968 --     8 N    0.935
     6   1 H    0.904 --     4 O    0.886
     7   6 C    3.937 --     1 O    1.007     8 N    1.006     4 O    0.960
                             9 H    0.947
     8   7 N    3.095 --     7 C    1.006    10 C    0.992     5 H    0.935
     9   1 H    0.999 --     7 C    0.947
    10   6 C    3.947 --    11 N    1.014     8 N    0.992    13 O    0.961
                            12 H    0.941
    11   7 N    3.009 --    10 C    1.014     2 H    0.959    15 H    0.954
    12   1 H    1.000 --    10 C    0.941
    13   8 O    2.291 --    16 C    1.093    10 C    0.961    17 N    0.129
    14   1 H    0.975 --    17 N    0.948
    15   1 H    0.970 --    11 N    0.954
    16   6 C    3.924 --    17 N    1.868    13 O    1.093    18 H    0.932
    17   7 N    3.013 --    16 C    1.868    14 H    0.948    13 O    0.129
    18   1 H    1.000 --    16 C    0.932
 ---------------------------------------------------------------------------

molecular dipole:
                 x           y           z       tot (Debye)
 q only:        0.603       0.520       0.803
   full:        0.721       0.733       1.479       4.578

 projected vibrational frequencies (cm⁻¹)
eigval :       -0.00    -0.00    -0.00     0.00     0.00     0.00
eigval :       27.07    48.94   102.14   132.26   170.96   206.89
eigval :      222.80   285.59   323.96   373.61   422.75   433.99
eigval :      491.37   527.27   571.97   646.50   776.79   790.92
eigval :      907.84   945.33   968.66   984.53  1040.41  1060.39
eigval :     1064.77  1097.72  1117.99  1183.09  1191.88  1214.71
eigval :     1245.94  1289.43  1307.10  1331.94  1351.44  1353.33
eigval :     1381.33  1529.40  1731.36  2736.83  2849.78  2916.37
eigval :     3390.82  3396.31  3413.88  3447.06  3515.31  3549.88

   temp. (K)  partition function   enthalpy   heat capacity  entropy
                                   cal/mol     cal/K/mol   cal/K/mol   J/K/mol
 298.15  VIB  0.368E+04             4957.816     30.290     30.502
         ROT  0.612E+06              888.752      2.981     29.460
         INT  0.225E+10             5846.569     33.271     59.962
         TR   0.152E+28             1481.254      4.968     40.597
         TOT                        7327.8225    38.2387   100.5587   420.7376

       T/K    H(0)-H(T)+PV         H(T)/Eh          T*S/Eh         G(T)/Eh
   ------------------------------------------------------------------------
    298.15    0.116776E-01    0.150807E+00    0.477787E-01    0.103028E+00
   ------------------------------------------------------------------------

         :::::::::::::::::::::::::::::::::::::::::::::::::::::
         ::                  THERMODYNAMIC                  ::
         :::::::::::::::::::::::::::::::::::::::::::::::::::::
         :: total free energy         -31.840100445482 Eh   ::
         ::.................................................::
         :: total energy              -31.943128424358 Eh   ::
         :: zero point energy           0.139129028452 Eh   ::
         :: G(RRHO) w/o ZPVE           -0.036101049577 Eh   ::
         :: G(RRHO) contrib.            0.103027978876 Eh   ::
         :::::::::::::::::::::::::::::::::::::::::::::::::::::

           -------------------------------------------------
          | TOTAL ENERGY              -31.943128424358 Eh   |
          | TOTAL ENTHALPY            -31.792321767398 Eh   |
          | TOTAL FREE ENERGY         -31.840100445482 Eh   |
          | GRADIENT NORM               0.000017825896 Eh/α |
          | HOMO-LUMO GAP               4.316271302357 eV   |
           -------------------------------------------------

 * finished run on 2025/01/10 at 14:25:04.014
normal termination of xtb
