   * xtb version 6.7.1 (edcfbbe) compiled by 'albert@albert-system' on 2024-07-22

   ID    Z sym.   atoms
    1    8 O      1, 4, 13
    2    1 H      2, 3, 5, 6, 9, 12, 14, 15, 18
    3    6 C      7, 10, 16
    4    7 N      8, 11, 17

          program call               : /home/adpal/xtb-dist/bin/xtb ./results/p_{0,35}_coordinatesxTB.xyz --ohess --uhf 1 --parallel 8
          :  Hamiltonian                  GFN2-xTB          :
 * total energy  :   -31.9654107 Eh     change       -0.4263256E-13 Eh
   *** GEOMETRY OPTIMIZATION CONVERGED AFTER 1 ITERATIONS ***

 final structure:
================
18
 xtb: 6.7.1 (edcfbbe)
O            2.36703224636462       -2.92533971838815       -4.06998368747858
H            2.82301154610413        1.14815591736479       -2.11920665349619
H            2.38498628330725       -3.19821128885885       -3.14791868955955
O            1.97507594345901       -1.22897893713912       -5.48232450119567
H            3.50774468840416        0.01750624109182       -4.17092763675747
H            2.52407054702943       -1.80582705718661       -6.02973493339272
C            2.21782664662967       -1.54234599433577       -4.16860216711790
N            3.45229386129918       -0.89392392501272       -3.72276310296655
H            1.35378644210106       -1.18350208426705       -3.58139407411850
C            3.57320079231459       -0.72603080173252       -2.27660304702296
N            2.59170582767327        0.21672075513956       -1.78629460312799
H            3.34637301265354       -1.69959838512493       -1.80893780897178
O            6.06283127806350       -1.43234713210130       -3.58209632363967
H            2.62610078943281        0.24543486282131       -0.77428980882797
H            5.16018418595840       -1.61034495573098       -3.93469575289976
C            5.94042602152859       -0.70462340580733       -2.47955403820906
N            4.90331221030534       -0.34651846947936       -1.86605623535351
H            6.89706767737190       -0.39507562125316       -2.07141693586451

          :  Hamiltonian                  GFN2-xTB          :
         :: gradient norm              0.000016976567 Eh/a0 ::
         :: HOMO-LUMO gap              4.520374417611 eV    ::
         :: SCC energy               -32.235326950983 Eh    ::
         :: -> dispersion             -0.012394249269 Eh    ::
         :: repulsion energy           0.269916242394 Eh    ::

    * Orbital Energies and Occupations

         #    Occupation            Energy/Eh            Energy/eV
      -------------------------------------------------------------
         1        2.0000           -0.7272513             -19.7895
       ...           ...                  ...                  ...
        15        2.0000           -0.5428228             -14.7710
        16        2.0000           -0.5340802             -14.5331
        17        2.0000           -0.5287514             -14.3881
        18        2.0000           -0.5175854             -14.0842
        19        2.0000           -0.5102188             -13.8838
        20        2.0000           -0.4906816             -13.3521
        21        2.0000           -0.4818007             -13.1105
        22        2.0000           -0.4683807             -12.7453
        23        2.0000           -0.4513942             -12.2831
        24        2.0000           -0.4240466             -11.5389
        25        2.0000           -0.4076266             -11.0921
        26        2.0000           -0.3975993             -10.8192
        27        2.0000           -0.3915932             -10.6558 (HOMO)
        28                         -0.2254725              -6.1354 (LUMO)
        29                          0.0003936               0.0107
        30                          0.0406689               1.1067
        31                          0.0508790               1.3845
        32                          0.0551109               1.4996
        33                          0.0662962               1.8040
        34                          0.1001180               2.7243
        35                          0.1050944               2.8598
        36                          0.1231361               3.3507
        37                          0.1520864               4.1385
        38                          0.1644583               4.4751
       ...                                ...                  ...
        45                          0.6039262              16.4337
      -------------------------------------------------------------
                  HL-Gap            0.1661207 Eh            4.5204 eV

     #   Z          covCN         q      C6AA      α(0)
     1   8 O        1.657    -0.450    21.852     6.310
     2   1 H        0.860     0.155     1.368     1.832
     3   1 H        0.805     0.306     0.704     1.318
     4   8 O        1.658    -0.427    21.388     6.243
     5   1 H        0.860     0.171     1.268     1.764
     6   1 H        0.805     0.326     0.648     1.265
     7   6 C        3.540     0.318    16.732     5.996
     8   7 N        2.679    -0.336    28.655     7.950
     9   1 H        0.923     0.025     2.663     2.552
    10   6 C        3.674     0.205    17.574     6.007
    11   7 N        2.633    -0.368    29.493     8.066
    12   1 H        0.923     0.018     2.763     2.600
    13   8 O        1.657    -0.375    20.380     6.094
    14   1 H        0.860     0.162     1.323     1.802
    15   1 H        0.802     0.331     0.636     1.253
    16   6 C        2.713     0.214    23.474     7.931
    17   7 N        1.823    -0.330    29.419     8.037
    18   1 H        0.925     0.059     2.213     2.326

Wiberg/Mayer (AO) data.
largest (>0.10) Wiberg bond orders for each atom

     #   Z sym  total        # sym  WBO       # sym  WBO       # sym  WBO
 ---------------------------------------------------------------------------
     1   8 O    1.976 --     7 C    0.987     3 H    0.886
     2   1 H    0.976 --    11 N    0.959
     3   1 H    0.907 --     1 O    0.886
     4   8 O    1.998 --     7 C    1.026     6 H    0.873
     5   1 H    0.971 --     8 N    0.941
     6   1 H    0.894 --     4 O    0.873
     7   6 C    3.934 --     4 O    1.026     1 O    0.987     8 N    0.955
                             9 H    0.944
     8   7 N    3.109 --    10 C    0.975     7 C    0.955     5 H    0.941
     9   1 H    0.999 --     7 C    0.944
    10   6 C    3.975 --    11 N    1.012    17 N    0.996     8 N    0.975
                            12 H    0.942
    11   7 N    3.014 --    10 C    1.012     2 H    0.959    14 H    0.957
    12   1 H    1.000 --    10 C    0.942
    13   8 O    2.209 --    16 C    1.164    15 H    0.816    17 N    0.184
    14   1 H    0.974 --    11 N    0.957
    15   1 H    0.891 --    13 O    0.816
    16   6 C    3.943 --    17 N    1.785    13 O    1.164    18 H    0.944
    17   7 N    3.049 --    16 C    1.785    10 C    0.996    13 O    0.184
    18   1 H    0.996 --    16 C    0.944
 ---------------------------------------------------------------------------

molecular dipole:
                 x           y           z       tot (Debye)
 q only:        0.009      -0.065       0.169
   full:        0.072       0.015       0.321       0.838

 projected vibrational frequencies (cm⁻¹)
eigval :       -0.00    -0.00    -0.00     0.00     0.00     0.00
eigval :       32.68    66.62    75.64   153.34   217.33   238.10
eigval :      253.52   303.29   335.46   352.27   440.65   452.50
eigval :      493.88   552.48   607.18   732.49   756.92   863.67
eigval :      905.42   924.87   967.78   995.47  1037.84  1056.47
eigval :     1087.85  1108.45  1154.37  1157.52  1173.06  1226.53
eigval :     1256.21  1279.23  1296.25  1311.75  1331.86  1334.29
eigval :     1368.93  1557.92  1742.90  2841.61  2845.03  3026.84
eigval :     3125.44  3356.96  3391.73  3436.37  3512.20  3571.13

   temp. (K)  partition function   enthalpy   heat capacity  entropy
                                   cal/mol     cal/K/mol   cal/K/mol   J/K/mol
 298.15  VIB  0.186E+04             4751.493     29.923     29.088
         ROT  0.577E+06              888.752      2.981     29.342
         INT  0.107E+10             5640.245     32.904     58.430
         TR   0.152E+28             1481.254      4.968     40.597
         TOT                        7121.4993    37.8718    99.0271   414.3293

       T/K    H(0)-H(T)+PV         H(T)/Eh          T*S/Eh         G(T)/Eh
   ------------------------------------------------------------------------
    298.15    0.113488E-01    0.151024E+00    0.470510E-01    0.103973E+00
   ------------------------------------------------------------------------

         :::::::::::::::::::::::::::::::::::::::::::::::::::::
         ::                  THERMODYNAMIC                  ::
         :::::::::::::::::::::::::::::::::::::::::::::::::::::
         :: total free energy         -31.861437663531 Eh   ::
         ::.................................................::
         :: total energy              -31.965410708589 Eh   ::
         :: zero point energy           0.139675179439 Eh   ::
         :: G(RRHO) w/o ZPVE           -0.035702134381 Eh   ::
         :: G(RRHO) contrib.            0.103973045058 Eh   ::
         :::::::::::::::::::::::::::::::::::::::::::::::::::::

           -------------------------------------------------
          | TOTAL ENERGY              -31.965410708589 Eh   |
          | TOTAL ENTHALPY            -31.814386697578 Eh   |
          | TOTAL FREE ENERGY         -31.861437663531 Eh   |
          | GRADIENT NORM               0.000016978248 Eh/α |
          | HOMO-LUMO GAP               4.520374736826 eV   |
           -------------------------------------------------

 * finished run on 2025/01/10 at 14:25:16.161
normal termination of xtb
