   * xtb version 6.7.1 (edcfbbe) compiled by 'albert@albert-system' on 2024-07-22

   ID    Z sym.   atoms
    1    8 O      1, 7, 13
    2    1 H      2, 3, 6, 8, 9, 12, 14, 15, 18
    3    6 C      4, 10, 16
    4    7 N      5, 11, 17

          program call               : /home/adpal/xtb-dist/bin/xtb ./results/p_{0,43}_coordinatesxTB.xyz --ohess --uhf 1 --parallel 8
          :  Hamiltonian                  GFN2-xTB          :
 * total energy  :   -31.9471536 Eh     change        0.1421085E-13 Eh
   *** GEOMETRY OPTIMIZATION CONVERGED AFTER 1 ITERATIONS ***

 final structure:
================
18
 xtb: 6.7.1 (edcfbbe)
O           -2.28426105963457       -0.33873614676653        1.55254753908620
H           -0.34368260648085       -1.95550959503811        2.36277834066916
H            0.74330590035831       -0.72192090368807        2.49498545579231
C           -0.91411358017698       -0.27205730810679        1.39481259585898
N           -0.24044043168014       -0.95113931024179        2.46051549895611
H           -0.65998396991390        0.79818274129844        1.43605300380054
O           -1.20203925763434       -1.05388815083112       -2.13512073149125
H           -2.53905431745768       -1.26550777183736        1.64903477147189
H           -0.31753963310195       -1.38578161488107       -2.33791362330088
C           -1.14343484329150       -0.22775119238287       -1.03668371307504
N           -0.55938700647239       -0.87171750669830        0.09343800289357
H           -2.18122311429815        0.04167179819629       -0.79662414332779
O           -0.37636395846222        0.93963370357081       -1.33314009335380
H           -0.80024653607540        3.59565383225933       -2.93135486828629
H            0.45044951506029       -0.90121470210358       -0.01449646413322
C           -0.96369624026317        1.91215124836543       -2.03786870066403
N           -0.28241775542358        2.89069413546366       -2.41957885719627
H           -2.04103110505221        1.74541674342164       -2.21486401370015

          :  Hamiltonian                  GFN2-xTB          :
         :: gradient norm              0.000035592152 Eh/a0 ::
         :: HOMO-LUMO gap              4.403085811504 eV    ::
         :: SCC energy               -32.219899294023 Eh    ::
         :: -> dispersion             -0.011422968745 Eh    ::
         :: repulsion energy           0.272745684624 Eh    ::

    * Orbital Energies and Occupations

         #    Occupation            Energy/Eh            Energy/eV
      -------------------------------------------------------------
         1        2.0000           -0.7440848             -20.2476
       ...           ...                  ...                  ...
        15        2.0000           -0.5504613             -14.9788
        16        2.0000           -0.5253667             -14.2960
        17        2.0000           -0.5214638             -14.1898
        18        2.0000           -0.5146245             -14.0036
        19        2.0000           -0.5062679             -13.7763
        20        2.0000           -0.4923242             -13.3968
        21        2.0000           -0.4803067             -13.0698
        22        2.0000           -0.4698881             -12.7863
        23        2.0000           -0.4525086             -12.3134
        24        2.0000           -0.4331290             -11.7860
        25        2.0000           -0.4126229             -11.2280
        26        2.0000           -0.4038071             -10.9881
        27        2.0000           -0.3873704             -10.5409 (HOMO)
        28                         -0.2255600              -6.1378 (LUMO)
        29                         -0.0015893              -0.0432
        30                          0.0037902               0.1031
        31                          0.0282327               0.7683
        32                          0.0649606               1.7677
        33                          0.0798700               2.1734
        34                          0.0888828               2.4186
        35                          0.1137170               3.0944
        36                          0.1255662               3.4168
        37                          0.1369465               3.7265
        38                          0.1660800               4.5193
       ...                                ...                  ...
        45                          0.5822014              15.8425
      -------------------------------------------------------------
                  HL-Gap            0.1618104 Eh            4.4031 eV

     #   Z          covCN         q      C6AA      α(0)
     1   8 O        1.658    -0.429    21.409     6.246
     2   1 H        0.860     0.162     1.323     1.802
     3   1 H        0.860     0.158     1.347     1.818
     4   6 C        3.599     0.256    17.166     5.995
     5   7 N        2.632    -0.356    29.168     8.021
     6   1 H        0.923     0.035     2.511     2.478
     7   8 O        1.658    -0.429    21.428     6.249
     8   1 H        0.805     0.315     0.678     1.293
     9   1 H        0.805     0.317     0.673     1.289
    10   6 C        3.566     0.318    16.524     5.919
    11   7 N        2.679    -0.331    28.525     7.932
    12   1 H        0.923     0.054     2.270     2.356
    13   8 O        1.707    -0.291    18.829     5.859
    14   1 H        0.860     0.159     1.339     1.813
    15   1 H        0.860     0.165     1.303     1.788
    16   6 C        2.712     0.234    23.089     7.865
    17   7 N        1.774    -0.331    29.393     8.028
    18   1 H        0.923    -0.007     3.184     2.791

Wiberg/Mayer (AO) data.
largest (>0.10) Wiberg bond orders for each atom

     #   Z sym  total        # sym  WBO       # sym  WBO       # sym  WBO
 ---------------------------------------------------------------------------
     1   8 O    2.001 --     4 C    1.018     8 H    0.881
     2   1 H    0.974 --     5 N    0.956
     3   1 H    0.975 --     5 N    0.960
     4   6 C    3.953 --     5 N    1.029     1 O    1.018     6 H    0.950
                            11 N    0.938
     5   7 N    3.033 --     4 C    1.029     3 H    0.960     2 H    0.956
     6   1 H    0.999 --     4 C    0.950
     7   8 O    2.005 --    10 C    1.018     9 H    0.879
     8   1 H    0.901 --     1 O    0.881
     9   1 H    0.900 --     7 O    0.879
    10   6 C    3.925 --    11 N    1.019     7 O    1.018    12 H    0.942
                            13 O    0.905
    11   7 N    3.074 --    10 C    1.019    15 H    0.942     4 C    0.938
    12   1 H    0.997 --    10 C    0.942
    13   8 O    2.270 --    16 C    1.107    10 C    0.905    17 N    0.135
    14   1 H    0.973 --    17 N    0.947
    15   1 H    0.973 --    11 N    0.942
    16   6 C    3.930 --    17 N    1.867    13 O    1.107    18 H    0.928
    17   7 N    3.017 --    16 C    1.867    14 H    0.947    13 O    0.135
    18   1 H    1.000 --    16 C    0.928
 ---------------------------------------------------------------------------

molecular dipole:
                 x           y           z       tot (Debye)
 q only:        0.241      -0.989       0.363
   full:        0.310      -1.124       0.045       2.966

 projected vibrational frequencies (cm⁻¹)
eigval :       -0.00    -0.00    -0.00    -0.00     0.00     0.00
eigval :       30.03    57.99    80.75   109.87   172.24   217.85
eigval :      250.45   316.13   330.36   357.28   405.77   479.72
eigval :      499.55   536.25   589.15   610.63   774.50   811.85
eigval :      883.72   942.11   954.93   968.94  1029.01  1044.23
eigval :     1082.35  1097.91  1135.39  1142.37  1210.15  1237.06
eigval :     1255.95  1271.91  1299.55  1337.09  1349.39  1369.94
eigval :     1386.56  1542.84  1735.68  2776.94  2884.80  2930.19
eigval :     3370.21  3399.63  3402.48  3460.40  3510.49  3514.18

   temp. (K)  partition function   enthalpy   heat capacity  entropy
                                   cal/mol     cal/K/mol   cal/K/mol   J/K/mol
 298.15  VIB  0.342E+04             4925.713     30.302     30.596
         ROT  0.642E+06              888.752      2.981     29.554
         INT  0.220E+10             5814.465     33.283     60.150
         TR   0.152E+28             1481.254      4.968     40.597
         TOT                        7295.7192    38.2509   100.7471   421.5259

       T/K    H(0)-H(T)+PV         H(T)/Eh          T*S/Eh         G(T)/Eh
   ------------------------------------------------------------------------
    298.15    0.116265E-01    0.150952E+00    0.478682E-01    0.103084E+00
   ------------------------------------------------------------------------

         :::::::::::::::::::::::::::::::::::::::::::::::::::::
         ::                  THERMODYNAMIC                  ::
         :::::::::::::::::::::::::::::::::::::::::::::::::::::
         :: total free energy         -31.844070007248 Eh   ::
         ::.................................................::
         :: total energy              -31.947153609399 Eh   ::
         :: zero point energy           0.139325335872 Eh   ::
         :: G(RRHO) w/o ZPVE           -0.036241733721 Eh   ::
         :: G(RRHO) contrib.            0.103083602151 Eh   ::
         :::::::::::::::::::::::::::::::::::::::::::::::::::::

           -------------------------------------------------
          | TOTAL ENERGY              -31.947153609399 Eh   |
          | TOTAL ENTHALPY            -31.796201804912 Eh   |
          | TOTAL FREE ENERGY         -31.844070007248 Eh   |
          | GRADIENT NORM               0.000035583633 Eh/α |
          | HOMO-LUMO GAP               4.403085595404 eV   |
           -------------------------------------------------

 * finished run on 2025/01/10 at 14:25:47.750
normal termination of xtb
