   * xtb version 6.7.1 (edcfbbe) compiled by 'albert@albert-system' on 2024-07-22

   ID    Z sym.   atoms
    1    8 O      1, 4, 10
    2    1 H      2, 3, 5, 6, 9, 11, 12, 15
    3    6 C      7, 13
    4    7 N      8, 14

          program call               : /home/adpal/xtb-dist/bin/xtb ./results/p_{0,46}_coordinatesxTB.xyz --ohess --uhf 1 --parallel 8
          :  Hamiltonian                  GFN2-xTB          :
 * total energy  :   -26.3974050 Eh     change        0.3197442E-13 Eh
   *** GEOMETRY OPTIMIZATION CONVERGED AFTER 1 ITERATIONS ***

 final structure:
================
15
 xtb: 6.7.1 (edcfbbe)
O            2.86247049256573       -0.36359023332703        1.04836577556161
H            0.65868921551699        0.48348999479880       -0.12865555216212
H            2.33092112689983        0.24989095464467        1.57298875084399
O            4.63140314341337        2.56885405490513       -0.90086480654328
H            4.47609540667025        0.82564099336501       -2.84359268205476
H            3.99044834448381        2.98264736341473       -1.49281980589000
C            4.36348035826251        1.20580189354690       -0.85222323647720
N            4.85741865921323        0.45878246497916       -1.97752072584998
H            4.85030172429649        0.82006156309978        0.05452911723925
O            2.97310103717651        1.05015200712582       -0.77504207543692
H            0.92263780624751       -0.40857888404695       -1.48191872806273
H            5.86695179268360        0.50590785404870       -2.01944900116408
C            2.53889670642575       -0.21920454656465       -0.28193369831585
N            1.13353058434207       -0.33538775584796       -0.49567373399308
H            3.07085360180228       -1.01667772414191       -0.81600959769462

          :  Hamiltonian                  GFN2-xTB          :
         :: gradient norm              0.000037501506 Eh/a0 ::
         :: HOMO-LUMO gap             11.286981063613 eV    ::
         :: SCC energy               -26.591933167829 Eh    ::
         :: -> dispersion             -0.008201218356 Eh    ::
         :: repulsion energy           0.194528149041 Eh    ::

    * Orbital Energies and Occupations

         #    Occupation            Energy/Eh            Energy/eV
      -------------------------------------------------------------
         1        2.0000           -0.7257950             -19.7499
       ...           ...                  ...                  ...
        10        2.0000           -0.5727294             -15.5848
        11        2.0000           -0.5633291             -15.3290
        12        2.0000           -0.5459859             -14.8570
        13        2.0000           -0.5380416             -14.6409
        14        2.0000           -0.5233368             -14.2407
        15        2.0000           -0.5027890             -13.6816
        16        2.0000           -0.4918009             -13.3826
        17        2.0000           -0.4638970             -12.6233
        18        2.0000           -0.4582853             -12.4706
        19        2.0000           -0.4518089             -12.2943
        20        2.0000           -0.4329170             -11.7803
        21        2.0000           -0.4043735             -11.0036
        22        2.0000           -0.3978551             -10.8262 (HOMO)
        23                          0.0169339               0.4608 (LUMO)
        24                          0.0387428               1.0542
        25                          0.0529864               1.4418
        26                          0.0707486               1.9252
        27                          0.0874691               2.3802
        28                          0.1206108               3.2820
        29                          0.1380878               3.7576
        30                          0.1521236               4.1395
        31                          0.1633537               4.4451
        32                          0.1777097               4.8357
        33                          0.2179498               5.9307
       ...                                ...                  ...
        36                          0.2734034               7.4397
      -------------------------------------------------------------
                  HL-Gap            0.4147889 Eh           11.2870 eV

     #   Z          covCN         q      C6AA      α(0)
     1   8 O        1.658    -0.434    21.512     6.261
     2   1 H        0.860     0.166     1.298     1.785
     3   1 H        0.805     0.314     0.680     1.295
     4   8 O        1.657    -0.450    21.836     6.308
     5   1 H        0.860     0.159     1.341     1.814
     6   1 H        0.805     0.310     0.691     1.305
     7   6 C        3.554     0.323    16.548     5.941
     8   7 N        2.629    -0.380    29.832     8.112
     9   1 H        0.923     0.039     2.456     2.451
    10   8 O        1.700    -0.388    20.599     6.128
    11   1 H        0.860     0.166     1.295     1.783
    12   1 H        0.860     0.165     1.303     1.788
    13   6 C        3.553     0.315    16.659     5.962
    14   7 N        2.630    -0.355    29.160     8.020
    15   1 H        0.924     0.048     2.344     2.394

Wiberg/Mayer (AO) data.
largest (>0.10) Wiberg bond orders for each atom

     #   Z sym  total        # sym  WBO       # sym  WBO       # sym  WBO
 ---------------------------------------------------------------------------
     1   8 O    2.002 --    13 C    1.017     3 H    0.880
     2   1 H    0.972 --    14 N    0.953
     3   1 H    0.901 --     1 O    0.880
     4   8 O    1.981 --     7 C    0.991     6 H    0.884
     5   1 H    0.975 --     8 N    0.958
     6   1 H    0.904 --     4 O    0.884
     7   6 C    3.931 --     8 N    1.011     4 O    0.991    10 O    0.958
                             9 H    0.948
     8   7 N    3.022 --     7 C    1.011     5 H    0.958    12 H    0.958
     9   1 H    0.998 --     7 C    0.948
    10   8 O    2.055 --     7 C    0.958    13 C    0.910
    11   1 H    0.972 --    14 N    0.957
    12   1 H    0.973 --     8 N    0.958
    13   6 C    3.930 --    14 N    1.034     1 O    1.017    15 H    0.948
                            10 O    0.910
    14   7 N    3.033 --    13 C    1.034    11 H    0.957     2 H    0.953
    15   1 H    0.998 --    13 C    0.948
 ---------------------------------------------------------------------------

molecular dipole:
                 x           y           z       tot (Debye)
 q only:       -0.499       0.142      -0.462
   full:       -0.493       0.726      -0.837       3.082

 projected vibrational frequencies (cm⁻¹)
eigval :       -0.00    -0.00     0.00     0.00     0.00     0.00
eigval :       63.05    79.66   171.66   242.46   260.57   295.53
eigval :      317.89   359.88   457.14   464.15   509.84   550.48
eigval :      618.68   889.59   897.57   955.96   961.93   991.15
eigval :     1062.09  1095.09  1100.54  1108.34  1155.07  1232.40
eigval :     1263.13  1288.55  1321.57  1329.50  1354.96  1537.90
eigval :     1545.93  2919.92  2935.76  3396.02  3398.53  3456.53
eigval :     3457.47  3506.96  3521.99

   temp. (K)  partition function   enthalpy   heat capacity  entropy
                                   cal/mol     cal/K/mol   cal/K/mol   J/K/mol
 298.15  VIB   150.                 3660.666     24.497     21.823
         ROT  0.258E+06              888.752      2.981     27.742
         INT  0.385E+08             4549.418     27.478     49.565
         TR   0.109E+28             1481.254      4.968     39.932
         TOT                        6030.6718    32.4460    89.4969   374.4552

       T/K    H(0)-H(T)+PV         H(T)/Eh          T*S/Eh         G(T)/Eh
   ------------------------------------------------------------------------
    298.15    0.961049E-02    0.128247E+00    0.425229E-01    0.857242E-01
   ------------------------------------------------------------------------

         :::::::::::::::::::::::::::::::::::::::::::::::::::::
         ::                  THERMODYNAMIC                  ::
         :::::::::::::::::::::::::::::::::::::::::::::::::::::
         :: total free energy         -26.311680809559 Eh   ::
         ::.................................................::
         :: total energy              -26.397405018789 Eh   ::
         :: zero point energy           0.118636602126 Eh   ::
         :: G(RRHO) w/o ZPVE           -0.032912392897 Eh   ::
         :: G(RRHO) contrib.            0.085724209230 Eh   ::
         :::::::::::::::::::::::::::::::::::::::::::::::::::::

           -------------------------------------------------
          | TOTAL ENERGY              -26.397405018789 Eh   |
          | TOTAL ENTHALPY            -26.269157929357 Eh   |
          | TOTAL FREE ENERGY         -26.311680809559 Eh   |
          | GRADIENT NORM               0.000037503014 Eh/α |
          | HOMO-LUMO GAP              11.286981220909 eV   |
           -------------------------------------------------

 * finished run on 2025/01/10 at 14:26:00.350
normal termination of xtb
