   * xtb version 6.7.1 (edcfbbe) compiled by 'albert@albert-system' on 2024-07-22

   ID    Z sym.   atoms
    1    8 O      1, 10
    2    1 H      2, 3, 6, 9, 11, 12, 15
    3    6 C      4, 7, 13
    4    7 N      5, 8, 14

          program call               : /home/adpal/xtb-dist/bin/xtb ./results/p_{0,37}_coordinatesxTB.xyz --ohess --uhf 1 --parallel 8
          :  Hamiltonian                  GFN2-xTB          :
 * total energy  :   -26.8698315 Eh     change       -0.1421085E-13 Eh
   *** GEOMETRY OPTIMIZATION CONVERGED AFTER 1 ITERATIONS ***

 final structure:
================
15
 xtb: 6.7.1 (edcfbbe)
O            0.69891071327378       -1.61770033970808       -2.19234632784694
H            2.32833241015641        0.16959595334777       -5.47446619699336
H            1.34270476517908       -1.85942315149602       -1.50841185906730
C            1.18906033713332       -0.66425683475475       -2.96985511062300
N            2.33736217109404       -0.17993224517906       -2.78538157862748
H            0.49330303258286       -0.36255511636676       -3.75135240808250
C            2.87063001359714        0.85191648680046       -3.65209203886536
N            2.12602373695008        0.97352644795865       -4.88656996724678
H            2.76315621187057        1.80566456086742       -3.10684141375266
O            4.81304779603746       -0.67755135222511       -2.10742252800621
H            2.45182333426607        1.79379679627411       -5.38350561368431
H            3.83784074240366       -0.62357840902673       -1.95619630516618
C            5.06262014515053        0.01368646651457       -3.21359896843460
N            4.27803634961965        0.68444925784310       -3.92901293589647
H            6.10548824068551       -0.02611852085057       -3.51168674770692

          :  Hamiltonian                  GFN2-xTB          :
         :: gradient norm              0.000030001342 Eh/a0 ::
         :: HOMO-LUMO gap              4.027234937201 eV    ::
         :: SCC energy               -27.139374060658 Eh    ::
         :: -> dispersion             -0.009842294904 Eh    ::
         :: repulsion energy           0.269542547637 Eh    ::

    * Orbital Energies and Occupations

         #    Occupation            Energy/Eh            Energy/eV
      -------------------------------------------------------------
         1        2.0000           -0.7451650             -20.2770
       ...           ...                  ...                  ...
        11        2.0000           -0.5570989             -15.1594
        12        2.0000           -0.5500225             -14.9669
        13        2.0000           -0.5437098             -14.7951
        14        2.0000           -0.5374789             -14.6255
        15        2.0000           -0.5266162             -14.3300
        16        2.0000           -0.5147969             -14.0083
        17        2.0000           -0.4860247             -13.2254
        18        2.0000           -0.4825547             -13.1310
        19        2.0000           -0.4429699             -12.0538
        20        2.0000           -0.4148811             -11.2895
        21        2.0000           -0.4092177             -11.1354
        22        2.0000           -0.3894109             -10.5964
        23        2.0000           -0.3862206             -10.5096 (HOMO)
        24                         -0.2382224              -6.4824 (LUMO)
        25                         -0.2157357              -5.8705
        26                          0.0312234               0.8496
        27                          0.0538292               1.4648
        28                          0.0730636               1.9882
        29                          0.0946550               2.5757
        30                          0.1208065               3.2873
        31                          0.1411529               3.8410
        32                          0.1639119               4.4603
        33                          0.1933462               5.2612
        34                          0.2259184               6.1476
       ...                                ...                  ...
        39                          0.6181567              16.8209
      -------------------------------------------------------------
                  HL-Gap            0.1479982 Eh            4.0272 eV

     #   Z          covCN         q      C6AA      α(0)
     1   8 O        1.661    -0.346    19.838     6.013
     2   1 H        0.860     0.151     1.391     1.847
     3   1 H        0.804     0.325     0.650     1.267
     4   6 C        2.716     0.219    23.379     7.915
     5   7 N        1.825    -0.329    29.393     8.033
     6   1 H        0.925     0.054     2.274     2.358
     7   6 C        3.691     0.206    17.514     5.989
     8   7 N        2.633    -0.365    29.406     8.054
     9   1 H        0.923     0.037     2.491     2.468
    10   8 O        1.656    -0.385    20.568     6.122
    11   1 H        0.860     0.163     1.315     1.796
    12   1 H        0.803     0.330     0.638     1.254
    13   6 C        2.710     0.215    23.450     7.927
    14   7 N        1.824    -0.327    29.331     8.025
    15   1 H        0.925     0.052     2.289     2.366

Wiberg/Mayer (AO) data.
largest (>0.10) Wiberg bond orders for each atom

     #   Z sym  total        # sym  WBO       # sym  WBO       # sym  WBO
 ---------------------------------------------------------------------------
     1   8 O    2.213 --     4 C    1.161     3 H    0.868     5 N    0.151
     2   1 H    0.977 --     8 N    0.961
     3   1 H    0.894 --     1 O    0.868
     4   6 C    3.932 --     5 N    1.774     1 O    1.161     6 H    0.932
     5   7 N    3.102 --     4 C    1.774     7 C    0.980     1 O    0.151
     6   1 H    0.997 --     4 C    0.932
     7   6 C    3.975 --     8 N    1.010    14 N    0.992     5 N    0.980
                             9 H    0.931
     8   7 N    3.015 --     7 C    1.010     2 H    0.961    11 H    0.957
     9   1 H    0.999 --     7 C    0.931
    10   8 O    2.198 --    13 C    1.159    12 H    0.804    14 N    0.183
    11   1 H    0.973 --     8 N    0.957
    12   1 H    0.891 --    10 O    0.804
    13   6 C    3.945 --    14 N    1.790    10 O    1.159    15 H    0.944
    14   7 N    3.055 --    13 C    1.790     7 C    0.992    10 O    0.183
    15   1 H    0.997 --    13 C    0.944
 ---------------------------------------------------------------------------

molecular dipole:
                 x           y           z       tot (Debye)
 q only:       -0.370      -0.209       0.222
   full:       -0.338      -0.245       0.197       1.173

 projected vibrational frequencies (cm⁻¹)
eigval :       -0.00    -0.00     0.00     0.00     0.00     0.00
eigval :       58.16    95.08   168.50   194.48   267.41   293.73
eigval :      343.46   388.24   444.04   523.88   626.87   662.60
eigval :      742.03   773.71   887.86   923.95   940.90   955.58
eigval :     1034.89  1097.95  1141.57  1155.22  1164.22  1227.51
eigval :     1243.45  1258.49  1301.06  1308.73  1339.68  1555.97
eigval :     1739.72  1752.34  2835.12  2979.40  3020.34  3062.29
eigval :     3386.59  3438.10  3443.96

   temp. (K)  partition function   enthalpy   heat capacity  entropy
                                   cal/mol     cal/K/mol   cal/K/mol   J/K/mol
 298.15  VIB   135.                 3546.542     23.902     21.194
         ROT  0.392E+06              888.752      2.981     28.576
         INT  0.528E+08             4435.295     26.883     49.770
         TR   0.123E+28             1481.254      4.968     40.170
         TOT                        5916.5485    31.8507    89.9406   376.3115

       T/K    H(0)-H(T)+PV         H(T)/Eh          T*S/Eh         G(T)/Eh
   ------------------------------------------------------------------------
    298.15    0.942862E-02    0.122829E+00    0.427337E-01    0.800954E-01
   ------------------------------------------------------------------------

         :::::::::::::::::::::::::::::::::::::::::::::::::::::
         ::                  THERMODYNAMIC                  ::
         :::::::::::::::::::::::::::::::::::::::::::::::::::::
         :: total free energy         -26.789736113030 Eh   ::
         ::.................................................::
         :: total energy              -26.869831513021 Eh   ::
         :: zero point energy           0.113400463140 Eh   ::
         :: G(RRHO) w/o ZPVE           -0.033305063150 Eh   ::
         :: G(RRHO) contrib.            0.080095399991 Eh   ::
         :::::::::::::::::::::::::::::::::::::::::::::::::::::

           -------------------------------------------------
          | TOTAL ENERGY              -26.869831513021 Eh   |
          | TOTAL ENTHALPY            -26.747002429710 Eh   |
          | TOTAL FREE ENERGY         -26.789736113030 Eh   |
          | GRADIENT NORM               0.000029999292 Eh/α |
          | HOMO-LUMO GAP               4.027234897574 eV   |
           -------------------------------------------------

 * finished run on 2025/01/10 at 14:25:22.987
normal termination of xtb
