   * xtb version 6.7.1 (edcfbbe) compiled by 'albert@albert-system' on 2024-07-22

   ID    Z sym.   atoms
    1    6 C      1, 7
    2    7 N      2, 8
    3    1 H      3, 5, 6, 9
    4    8 O      4

          program call               : /home/adpal/xtb-dist/bin/xtb ./results/p_{0,4}_coordinatesxTB.xyz --ohess --uhf 1 --parallel 8
          :  Hamiltonian                  GFN2-xTB          :
 * total energy  :   -16.1654634 Eh     change       -0.2131628E-13 Eh
   *** GEOMETRY OPTIMIZATION CONVERGED AFTER 1 ITERATIONS ***

 final structure:
================
9
 xtb: 6.7.1 (edcfbbe)
C            0.37111102236063        0.95338753895704        1.27908069654835
N           -0.66366518420938        0.33427859170318        1.60693097434610
H            0.58855635126272        1.40820590420480        0.29082813346246
O            1.35205628654309        1.11320177058192        2.17753924678415
H            4.18939443683579        2.43702608286938        2.33686212570838
H           -1.36969616964102        0.24538157639643        0.88628676242362
C            2.46080810972774        1.77724920996217        1.82436445067572
N            3.37665727102289        1.92714994577106        2.66120011424920
H            2.45123787609754        2.14254937955402        0.77686749580202

          :  Hamiltonian                  GFN2-xTB          :
         :: gradient norm              0.000022686737 Eh/a0 ::
         :: HOMO-LUMO gap              3.571968944981 eV    ::
         :: SCC energy               -16.354451764069 Eh    ::
         :: -> dispersion             -0.004033823910 Eh    ::
         :: repulsion energy           0.188988357412 Eh    ::

    * Orbital Energies and Occupations

         #    Occupation            Energy/Eh            Energy/eV
      -------------------------------------------------------------
         1        2.0000           -0.7659356             -20.8422
         2        2.0000           -0.7112861             -19.3551
         3        2.0000           -0.6667670             -18.1437
         4        2.0000           -0.6410953             -17.4451
         5        2.0000           -0.6349578             -17.2781
         6        2.0000           -0.5994841             -16.3128
         7        2.0000           -0.5692985             -15.4914
         8        2.0000           -0.5442765             -14.8105
         9        2.0000           -0.5191557             -14.1269
        10        2.0000           -0.5174834             -14.0814
        11        2.0000           -0.5015271             -13.6472
        12        2.0000           -0.4441940             -12.0871
        13        2.0000           -0.4103351             -11.1658
        14        2.0000           -0.4030636             -10.9679 (HOMO)
        15                         -0.2717962              -7.3959 (LUMO)
        16                         -0.2196409              -5.9767
        17                          0.0108236               0.2945
        18                          0.0913421               2.4855
        19                          0.1018211               2.7707
        20                          0.1317681               3.5856
        21                          0.2283587               6.2140
        22                          0.3457565               9.4085
        23                          0.5578352              15.1795
        24                          0.5903385              16.0639
      -------------------------------------------------------------
                  HL-Gap            0.1312674 Eh            3.5720 eV

     #   Z          covCN         q      C6AA      α(0)
     1   6 C        2.735     0.224    23.284     7.900
     2   7 N        1.774    -0.306    28.738     7.938
     3   1 H        0.922    -0.004     3.132     2.768
     4   8 O        1.715    -0.166    16.810     5.536
     5   1 H        0.860     0.169     1.278     1.771
     6   1 H        0.860     0.169     1.278     1.771
     7   6 C        2.735     0.224    23.284     7.900
     8   7 N        1.774    -0.306    28.738     7.938
     9   1 H        0.922    -0.004     3.132     2.768

Wiberg/Mayer (AO) data.
largest (>0.10) Wiberg bond orders for each atom

     #   Z sym  total        # sym  WBO       # sym  WBO       # sym  WBO
 ---------------------------------------------------------------------------
     1   6 C    3.927 --     2 N    1.879     4 O    1.089     3 H    0.920
     2   7 N    3.036 --     1 C    1.879     6 H    0.944     4 O    0.102
     3   1 H    1.000 --     1 C    0.920
     4   8 O    2.451 --     7 C    1.089     1 C    1.089     2 N    0.102
                             8 N    0.102
     5   1 H    0.970 --     8 N    0.944
     6   1 H    0.970 --     2 N    0.944
     7   6 C    3.927 --     8 N    1.879     4 O    1.089     9 H    0.920
     8   7 N    3.036 --     7 C    1.879     5 H    0.944     4 O    0.102
     9   1 H    1.000 --     7 C    0.920
 ---------------------------------------------------------------------------

molecular dipole:
                 x           y           z       tot (Debye)
 q only:        0.083       0.329      -0.815
   full:        0.173       0.684      -1.699       4.676

 projected vibrational frequencies (cm⁻¹)
eigval :       -0.00    -0.00    -0.00     0.00     0.00     0.00
eigval :      123.51   186.15   255.70   537.94   563.98   776.00
eigval :      785.45   968.50   971.66   983.33  1090.34  1232.07
eigval :     1245.97  1354.48  1385.54  1726.16  1748.07  2721.19
eigval :     2730.01  3408.85  3409.82

   temp. (K)  partition function   enthalpy   heat capacity  entropy
                                   cal/mol     cal/K/mol   cal/K/mol   J/K/mol
 298.15  VIB   6.69                 1566.111     11.321      9.020
         ROT  0.255E+05              888.752      2.981     23.142
         INT  0.170E+06             2454.864     14.302     32.163
         TR   0.592E+27             1481.254      4.968     38.724
         TOT                        3936.1175    19.2701    70.8865   296.5890

       T/K    H(0)-H(T)+PV         H(T)/Eh          T*S/Eh         G(T)/Eh
   ------------------------------------------------------------------------
    298.15    0.627260E-02    0.705277E-01    0.336805E-01    0.368473E-01
   ------------------------------------------------------------------------

         :::::::::::::::::::::::::::::::::::::::::::::::::::::
         ::                  THERMODYNAMIC                  ::
         :::::::::::::::::::::::::::::::::::::::::::::::::::::
         :: total free energy         -16.128616147526 Eh   ::
         ::.................................................::
         :: total energy              -16.165463406657 Eh   ::
         :: zero point energy           0.064255108177 Eh   ::
         :: G(RRHO) w/o ZPVE           -0.027407849045 Eh   ::
         :: G(RRHO) contrib.            0.036847259131 Eh   ::
         :::::::::::::::::::::::::::::::::::::::::::::::::::::

           -------------------------------------------------
          | TOTAL ENERGY              -16.165463406657 Eh   |
          | TOTAL ENTHALPY            -16.094935696045 Eh   |
          | TOTAL FREE ENERGY         -16.128616147526 Eh   |
          | GRADIENT NORM               0.000022686660 Eh/α |
          | HOMO-LUMO GAP               3.571968945102 eV   |
           -------------------------------------------------

 * finished run on 2025/01/10 at 14:24:02.832
normal termination of xtb
