   * xtb version 6.7.1 (edcfbbe) compiled by 'albert@albert-system' on 2024-07-22

   ID    Z sym.   atoms
    1    6 C      1, 7, 13
    2    7 N      2, 8, 14
    3    1 H      3, 5, 6, 9, 11, 12, 15
    4    8 O      4, 10

          program call               : /home/adpal/xtb-dist/bin/xtb ./results/p_{0,30}_coordinatesxTB.xyz --ohess --uhf 1 --parallel 8
          :  Hamiltonian                  GFN2-xTB          :
 * total energy  :   -26.8689050 Eh     change       -0.2131628E-13 Eh
   *** GEOMETRY OPTIMIZATION CONVERGED AFTER 1 ITERATIONS ***

 final structure:
================
15
 xtb: 6.7.1 (edcfbbe)
C            1.30887636808437        0.23171864736591        2.62719710018150
N            0.25326075442219       -0.45511065402846        2.67744638784803
H            2.12448964392123        0.25202069937280        3.36156922921460
O            3.32058638462739        3.47333647618833       -1.75843898979945
H            1.94628203606029        3.31253414762627        0.29833792145761
H            0.16598205492827       -1.04224559216662        3.49906803969775
C            3.43625872601737        2.65224555716936       -0.89206404209108
N            2.64151148035756        2.58229452644982        0.20164697361956
H            4.19541016348278        1.85069533108251       -0.90412069895259
O            3.32537891537751        2.29529668902811        2.43006272068326
H            0.85311387082389        1.01750582419117        0.83415516462866
H            2.69331178148075        2.93773535681254        2.78005688518978
C            2.79831368588171        1.67794948871159        1.30706689484013
N            1.50405408848632        1.10946165789635        1.60090863180165
H            3.54752004604866        0.92018184430017        1.02000778168047

          :  Hamiltonian                  GFN2-xTB          :
         :: gradient norm              0.000048025884 Eh/a0 ::
         :: HOMO-LUMO gap              3.997664298190 eV    ::
         :: SCC energy               -27.148102270531 Eh    ::
         :: -> dispersion             -0.009085005662 Eh    ::
         :: repulsion energy           0.279197270292 Eh    ::

    * Orbital Energies and Occupations

         #    Occupation            Energy/Eh            Energy/eV
      -------------------------------------------------------------
         1        2.0000           -0.7454830             -20.2856
       ...           ...                  ...                  ...
        11        2.0000           -0.5842275             -15.8976
        12        2.0000           -0.5609012             -15.2629
        13        2.0000           -0.5518281             -15.0160
        14        2.0000           -0.5341213             -14.5342
        15        2.0000           -0.5268770             -14.3371
        16        2.0000           -0.5124780             -13.9452
        17        2.0000           -0.5054566             -13.7542
        18        2.0000           -0.4993732             -13.5886
        19        2.0000           -0.4780838             -13.0093
        20        2.0000           -0.4452601             -12.1161
        21        2.0000           -0.4226643             -11.5013
        22        2.0000           -0.4073449             -11.0844
        23        2.0000           -0.3840174             -10.4496 (HOMO)
        24                         -0.2371059              -6.4520 (LUMO)
        25                         -0.2198682              -5.9829
        26                         -0.0283511              -0.7715
        27                          0.0010403               0.0283
        28                          0.0412881               1.1235
        29                          0.0687181               1.8699
        30                          0.0969896               2.6392
        31                          0.1339871               3.6460
        32                          0.1386568               3.7730
        33                          0.1766733               4.8075
        34                          0.1868179               5.0836
       ...                                ...                  ...
        39                          0.6304990              17.1568
      -------------------------------------------------------------
                  HL-Gap            0.1469115 Eh            3.9977 eV

     #   Z          covCN         q      C6AA      α(0)
     1   6 C        2.751     0.146    24.798     8.154
     2   7 N        1.787    -0.362    30.258     8.147
     3   1 H        0.924     0.011     2.876     2.652
     4   8 O        0.858    -0.376    21.199     6.173
     5   1 H        0.860     0.200     1.105     1.647
     6   1 H        0.860     0.146     1.430     1.873
     7   6 C        2.693     0.260    22.624     7.785
     8   7 N        2.688    -0.212    25.609     7.516
     9   1 H        0.923     0.019     2.756     2.596
    10   8 O        1.658    -0.424    21.311     6.232
    11   1 H        0.860     0.192     1.150     1.680
    12   1 H        0.805     0.314     0.679     1.295
    13   6 C        3.602     0.245    17.295     6.013
    14   7 N        2.702    -0.217    25.724     7.533
    15   1 H        0.923     0.057     2.230     2.335

Wiberg/Mayer (AO) data.
largest (>0.10) Wiberg bond orders for each atom

     #   Z sym  total        # sym  WBO       # sym  WBO       # sym  WBO
 ---------------------------------------------------------------------------
     1   6 C    3.962 --     2 N    1.817    14 N    1.185     3 H    0.936
     2   7 N    2.995 --     1 C    1.817     6 H    0.952    14 N    0.158
     3   1 H    1.000 --     1 C    0.936
     4   8 O    2.059 --     7 C    1.773     8 N    0.204
     5   1 H    0.960 --     8 N    0.924
     6   1 H    0.978 --     2 N    0.952
     7   6 C    3.946 --     4 O    1.773     8 N    1.230     9 H    0.919
     8   7 N    3.420 --     7 C    1.230    13 C    0.985     5 H    0.924
                             4 O    0.204
     9   1 H    1.000 --     7 C    0.919
    10   8 O    2.007 --    13 C    1.011    12 H    0.880
    11   1 H    0.963 --    14 N    0.929
    12   1 H    0.901 --    10 O    0.880
    13   6 C    3.952 --    10 O    1.011     8 N    0.985    14 N    0.978
                            15 H    0.937
    14   7 N    3.350 --     1 C    1.185    13 C    0.978    11 H    0.929
                             2 N    0.158
    15   1 H    0.997 --    13 C    0.937
 ---------------------------------------------------------------------------

molecular dipole:
                 x           y           z       tot (Debye)
 q only:       -0.255      -0.087       0.807
   full:       -0.105      -0.171       1.116       2.882

 projected vibrational frequencies (cm⁻¹)
eigval :       -0.00    -0.00     0.00     0.00     0.00     0.00
eigval :       38.83    71.25   105.88   138.08   177.26   263.52
eigval :      349.39   377.87   423.39   484.92   572.82   599.92
eigval :      619.26   693.37   767.82   948.14   976.19   997.49
eigval :     1056.11  1073.06  1124.88  1186.68  1217.41  1239.98
eigval :     1281.21  1286.59  1322.65  1345.20  1400.88  1411.04
eigval :     1723.20  1791.12  2800.95  2850.56  2855.83  3399.21
eigval :     3402.92  3439.98  3500.71

   temp. (K)  partition function   enthalpy   heat capacity  entropy
                                   cal/mol     cal/K/mol   cal/K/mol   J/K/mol
 298.15  VIB   626.                 3965.247     24.432     24.766
         ROT  0.440E+06              888.752      2.981     28.803
         INT  0.275E+09             4854.000     27.413     53.570
         TR   0.123E+28             1481.254      4.968     40.170
         TOT                        6335.2535    32.3815    93.7400   392.2082

       T/K    H(0)-H(T)+PV         H(T)/Eh          T*S/Eh         G(T)/Eh
   ------------------------------------------------------------------------
    298.15    0.100959E-01    0.122445E+00    0.445389E-01    0.779060E-01
   ------------------------------------------------------------------------

         :::::::::::::::::::::::::::::::::::::::::::::::::::::
         ::                  THERMODYNAMIC                  ::
         :::::::::::::::::::::::::::::::::::::::::::::::::::::
         :: total free energy         -26.790998990501 Eh   ::
         ::.................................................::
         :: total energy              -26.868905000239 Eh   ::
         :: zero point energy           0.112349040672 Eh   ::
         :: G(RRHO) w/o ZPVE           -0.034443030934 Eh   ::
         :: G(RRHO) contrib.            0.077906009738 Eh   ::
         :::::::::::::::::::::::::::::::::::::::::::::::::::::

           -------------------------------------------------
          | TOTAL ENERGY              -26.868905000239 Eh   |
          | TOTAL ENTHALPY            -26.746460090486 Eh   |
          | TOTAL FREE ENERGY         -26.790998990501 Eh   |
          | GRADIENT NORM               0.000048026076 Eh/α |
          | HOMO-LUMO GAP               3.997664266180 eV   |
           -------------------------------------------------

 * finished run on 2025/01/10 at 14:24:54.864
normal termination of xtb
