   * xtb version 6.7.1 (edcfbbe) compiled by 'albert@albert-system' on 2024-07-22

   ID    Z sym.   atoms
    1    8 O      1, 4, 13
    2    1 H      2, 3, 5, 6, 9, 12, 14, 15, 18
    3    6 C      7, 10, 16
    4    7 N      8, 11, 17

          program call               : /home/adpal/xtb-dist/bin/xtb ./results/p_{0,34}_coordinatesxTB.xyz --ohess --uhf 1 --parallel 8
          :  Hamiltonian                  GFN2-xTB          :
 * total energy  :   -31.9650089 Eh     change       -0.2842171E-13 Eh
   *** GEOMETRY OPTIMIZATION CONVERGED AFTER 1 ITERATIONS ***

 final structure:
================
18
 xtb: 6.7.1 (edcfbbe)
O            3.68387149917434       -0.68033166044233       -2.29282155661852
H            5.42400924657417       -1.01999733889641       -3.93627591724344
H            3.87769238266309        1.31002595853552        0.21634708975526
O            2.68604292824713        0.60917059601328       -3.93097404646937
H            4.88941372086289       -0.01827627806665       -5.13342353319771
H            2.25810078654099       -0.14629996032115       -4.35722161876490
C            3.88121216013824        0.17861482109856       -3.38896319383601
N            4.60378135356774       -0.60323419341776       -4.35772425030436
H            4.39346399808462        1.09299880148163       -3.03627921518347
C            3.18347701310152       -0.02980403941695       -1.12336111620077
N            4.24742742660152        0.75883452202071       -0.54803436295340
H            2.37786014945850        0.66234794570204       -1.42111973348027
O            2.72070716340074       -2.94941789639013       -1.37825494575812
H            4.95825057134420        0.13926410894599       -0.17059053116142
H            3.12056108100560       -2.40823651971460       -2.08795425607335
C            2.47317626811545       -2.17395945307695       -0.33071029059371
N            2.63931914516929       -0.93938205305995       -0.16954276940532
H            2.05372310595054       -2.72931736099602        0.50268424748942

          :  Hamiltonian                  GFN2-xTB          :
         :: gradient norm              0.000042680339 Eh/a0 ::
         :: HOMO-LUMO gap              4.615978145536 eV    ::
         :: SCC energy               -32.237143832864 Eh    ::
         :: -> dispersion             -0.011991696585 Eh    ::
         :: repulsion energy           0.272134908100 Eh    ::

    * Orbital Energies and Occupations

         #    Occupation            Energy/Eh            Energy/eV
      -------------------------------------------------------------
         1        2.0000           -0.7299618             -19.8633
       ...           ...                  ...                  ...
        15        2.0000           -0.5450384             -14.8312
        16        2.0000           -0.5407474             -14.7145
        17        2.0000           -0.5274477             -14.3526
        18        2.0000           -0.5168194             -14.0634
        19        2.0000           -0.4959675             -13.4960
        20        2.0000           -0.4921712             -13.3927
        21        2.0000           -0.4683800             -12.7453
        22        2.0000           -0.4567533             -12.4289
        23        2.0000           -0.4508923             -12.2694
        24        2.0000           -0.4197655             -11.4224
        25        2.0000           -0.4046362             -11.0107
        26        2.0000           -0.3977847             -10.8243
        27        2.0000           -0.3914940             -10.6531 (HOMO)
        28                         -0.2218599              -6.0371 (LUMO)
        29                         -0.0121121              -0.3296
        30                          0.0510392               1.3888
        31                          0.0555475               1.5115
        32                          0.0718584               1.9554
        33                          0.0755144               2.0549
        34                          0.1098217               2.9884
        35                          0.1155328               3.1438
        36                          0.1369987               3.7279
        37                          0.1505440               4.0965
        38                          0.1654162               4.5012
       ...                                ...                  ...
        45                          0.6241875              16.9850
      -------------------------------------------------------------
                  HL-Gap            0.1696341 Eh            4.6160 eV

     #   Z          covCN         q      C6AA      α(0)
     1   8 O        1.701    -0.376    20.379     6.095
     2   1 H        0.860     0.167     1.294     1.782
     3   1 H        0.860     0.168     1.284     1.775
     4   8 O        1.658    -0.445    21.750     6.296
     5   1 H        0.860     0.166     1.294     1.782
     6   1 H        0.805     0.318     0.669     1.285
     7   6 C        3.554     0.324    16.538     5.939
     8   7 N        2.631    -0.370    29.541     8.072
     9   1 H        0.922     0.020     2.730     2.584
    10   6 C        3.627     0.268    16.862     5.916
    11   7 N        2.632    -0.362    29.342     8.045
    12   1 H        0.923     0.037     2.485     2.465
    13   8 O        1.658    -0.372    20.307     6.083
    14   1 H        0.860     0.160     1.335     1.810
    15   1 H        0.803     0.340     0.611     1.228
    16   6 C        2.708     0.218    23.387     7.916
    17   7 N        1.823    -0.323    29.213     8.009
    18   1 H        0.925     0.060     2.193     2.316

Wiberg/Mayer (AO) data.
largest (>0.10) Wiberg bond orders for each atom

     #   Z sym  total        # sym  WBO       # sym  WBO       # sym  WBO
 ---------------------------------------------------------------------------
     1   8 O    2.085 --     7 C    0.945    10 C    0.920
     2   1 H    0.972 --     8 N    0.956
     3   1 H    0.972 --    11 N    0.956
     4   8 O    1.994 --     7 C    1.009     6 H    0.878
     5   1 H    0.971 --     8 N    0.957
     6   1 H    0.899 --     4 O    0.878
     7   6 C    3.931 --     8 N    1.010     4 O    1.009     1 O    0.945
                             9 H    0.941
     8   7 N    3.009 --     7 C    1.010     5 H    0.957     2 H    0.956
     9   1 H    1.000 --     7 C    0.941
    10   6 C    3.942 --    17 N    1.018    11 N    1.010    12 H    0.941
                             1 O    0.920
    11   7 N    3.021 --    10 C    1.010    14 H    0.959     3 H    0.956
    12   1 H    0.999 --    10 C    0.941
    13   8 O    2.212 --    16 C    1.163    15 H    0.827    17 N    0.184
    14   1 H    0.974 --    11 N    0.959
    15   1 H    0.884 --    13 O    0.827
    16   6 C    3.943 --    17 N    1.779    13 O    1.163    18 H    0.943
    17   7 N    3.068 --    16 C    1.779    10 C    1.018    13 O    0.184
    18   1 H    0.996 --    16 C    0.943
 ---------------------------------------------------------------------------

molecular dipole:
                 x           y           z       tot (Debye)
 q only:        0.395      -0.015      -0.307
   full:        0.669      -0.029      -0.337       1.906

 projected vibrational frequencies (cm⁻¹)
eigval :       -0.00    -0.00    -0.00    -0.00     0.00     0.00
eigval :       45.86    67.66    70.40   136.14   206.24   240.18
eigval :      255.72   306.03   339.47   398.18   422.67   453.23
eigval :      534.75   556.05   625.17   729.40   750.67   892.00
eigval :      899.86   921.88   936.48   966.78  1008.68  1044.44
eigval :     1090.00  1128.89  1149.95  1155.84  1184.39  1218.63
eigval :     1228.28  1276.75  1308.75  1316.94  1336.95  1349.70
eigval :     1515.32  1539.86  1757.84  2829.14  2856.25  3021.73
eigval :     3293.07  3392.58  3422.03  3446.95  3459.23  3498.47

   temp. (K)  partition function   enthalpy   heat capacity  entropy
                                   cal/mol     cal/K/mol   cal/K/mol   J/K/mol
 298.15  VIB  0.150E+04             4719.269     30.002     29.141
         ROT  0.553E+06              888.752      2.981     29.260
         INT  0.828E+09             5608.021     32.983     58.401
         TR   0.152E+28             1481.254      4.968     40.597
         TOT                        7089.2754    37.9515    98.9979   414.2073

       T/K    H(0)-H(T)+PV         H(T)/Eh          T*S/Eh         G(T)/Eh
   ------------------------------------------------------------------------
    298.15    0.112975E-01    0.151600E+00    0.470371E-01    0.104562E+00
   ------------------------------------------------------------------------

         :::::::::::::::::::::::::::::::::::::::::::::::::::::
         ::                  THERMODYNAMIC                  ::
         :::::::::::::::::::::::::::::::::::::::::::::::::::::
         :: total free energy         -31.860446496951 Eh   ::
         ::.................................................::
         :: total energy              -31.965008924764 Eh   ::
         :: zero point energy           0.140302056458 Eh   ::
         :: G(RRHO) w/o ZPVE           -0.035739628646 Eh   ::
         :: G(RRHO) contrib.            0.104562427813 Eh   ::
         :::::::::::::::::::::::::::::::::::::::::::::::::::::

           -------------------------------------------------
          | TOTAL ENERGY              -31.965008924764 Eh   |
          | TOTAL ENTHALPY            -31.813409388878 Eh   |
          | TOTAL FREE ENERGY         -31.860446496951 Eh   |
          | GRADIENT NORM               0.000042675635 Eh/α |
          | HOMO-LUMO GAP               4.615977849414 eV   |
           -------------------------------------------------

 * finished run on 2025/01/10 at 14:25:11.495
normal termination of xtb
