   * xtb version 6.7.1 (edcfbbe) compiled by 'albert@albert-system' on 2024-07-22

   ID    Z sym.   atoms
    1    8 O      1, 7
    2    1 H      2, 3, 6, 8, 9, 12
    3    6 C      4, 10
    4    7 N      5, 11

          program call               : /home/adpal/xtb-dist/bin/xtb ./results/p_{0,12}_coordinatesxTB.xyz --ohess --uhf 1 --parallel 8
          :  Hamiltonian                  GFN2-xTB          :
 * total energy  :   -21.2836611 Eh     change       -0.2486900E-13 Eh
   *** GEOMETRY OPTIMIZATION CONVERGED AFTER 1 ITERATIONS ***

 final structure:
================
12
 xtb: 6.7.1 (edcfbbe)
O            0.75588745062863       -0.49432231417428       -0.46686918367210
H            2.79622437884666       -0.88195952874769       -2.09275348931093
H            0.53034842625254       -0.64133119237993       -1.39507912263609
C            2.08036926145644       -0.14368187778928       -0.36346026422243
N            2.92502908027954       -1.02032956005252       -1.09554383345689
H            2.32593099763766       -0.19284897124418        0.70731617495278
O            2.28548209107085        1.19831386166637       -0.84032272780371
H            1.31942453845583        4.05728862909648       -0.01169138508826
H            3.89966410561363       -0.86284679071086       -0.87701209297064
C            1.69746035396550        2.18819255253360       -0.16086391731962
N            1.78092302188474        3.36248331425788       -0.58749578068215
H            1.17149629390796        1.85064187754442        0.74952562221006

          :  Hamiltonian                  GFN2-xTB          :
         :: gradient norm              0.000030094351 Eh/a0 ::
         :: HOMO-LUMO gap              4.387946466306 eV    ::
         :: SCC energy               -21.475694239764 Eh    ::
         :: -> dispersion             -0.005983598746 Eh    ::
         :: repulsion energy           0.192033168718 Eh    ::

    * Orbital Energies and Occupations

         #    Occupation            Energy/Eh            Energy/eV
      -------------------------------------------------------------
         1        2.0000           -0.7445278             -20.2596
       ...           ...                  ...                  ...
         6        2.0000           -0.6162565             -16.7692
         7        2.0000           -0.6020964             -16.3839
         8        2.0000           -0.5936364             -16.1537
         9        2.0000           -0.5769597             -15.6999
        10        2.0000           -0.5413325             -14.7304
        11        2.0000           -0.5266003             -14.3295
        12        2.0000           -0.5143391             -13.9959
        13        2.0000           -0.5084227             -13.8349
        14        2.0000           -0.4870337             -13.2529
        15        2.0000           -0.4678570             -12.7310
        16        2.0000           -0.4327010             -11.7744
        17        2.0000           -0.4191472             -11.4056
        18        2.0000           -0.3866241             -10.5206 (HOMO)
        19                         -0.2253700              -6.1326 (LUMO)
        20                         -0.0037124              -0.1010
        21                          0.0307625               0.8371
        22                          0.0715329               1.9465
        23                          0.0946359               2.5752
        24                          0.1232074               3.3526
        25                          0.1435412               3.9060
        26                          0.1661035               4.5199
        27                          0.2144324               5.8350
        28                          0.2351275               6.3981
        29                          0.3286364               8.9427
        30                          0.5813079              15.8182
      -------------------------------------------------------------
                  HL-Gap            0.1612540 Eh            4.3879 eV

     #   Z          covCN         q      C6AA      α(0)
     1   8 O        1.658    -0.428    21.394     6.244
     2   1 H        0.860     0.173     1.254     1.754
     3   1 H        0.805     0.318     0.669     1.285
     4   6 C        3.555     0.318    16.611     5.951
     5   7 N        2.630    -0.354    29.133     8.016
     6   1 H        0.923     0.044     2.396     2.421
     7   8 O        1.705    -0.295    18.901     5.870
     8   1 H        0.860     0.157     1.353     1.822
     9   1 H        0.860     0.172     1.258     1.757
    10   6 C        2.711     0.233    23.104     7.868
    11   7 N        1.774    -0.332    29.435     8.034
    12   1 H        0.923    -0.007     3.181     2.789

Wiberg/Mayer (AO) data.
largest (>0.10) Wiberg bond orders for each atom

     #   Z sym  total        # sym  WBO       # sym  WBO       # sym  WBO
 ---------------------------------------------------------------------------
     1   8 O    2.007 --     4 C    1.024     3 H    0.878
     2   1 H    0.970 --     5 N    0.950
     3   1 H    0.899 --     1 O    0.878
     4   6 C    3.931 --     5 N    1.045     1 O    1.024     6 H    0.946
                             7 O    0.891
     5   7 N    3.039 --     4 C    1.045     9 H    0.954     2 H    0.950
     6   1 H    0.998 --     4 C    0.946
     7   8 O    2.264 --    10 C    1.110     4 C    0.891    11 N    0.135
     8   1 H    0.974 --    11 N    0.948
     9   1 H    0.970 --     5 N    0.954
    10   6 C    3.932 --    11 N    1.866     7 O    1.110    12 H    0.930
    11   7 N    3.016 --    10 C    1.866     8 H    0.948     7 O    0.135
    12   1 H    1.000 --    10 C    0.930
 ---------------------------------------------------------------------------

molecular dipole:
                 x           y           z       tot (Debye)
 q only:        0.111      -0.606      -0.105
   full:        0.059      -0.487       0.078       1.263

 projected vibrational frequencies (cm⁻¹)
eigval :       -0.00    -0.00     0.00     0.00     0.00     0.00
eigval :       78.19   101.76   200.83   248.99   333.38   396.81
eigval :      473.06   546.94   604.16   775.78   879.99   938.31
eigval :      970.28   980.34  1071.82  1094.26  1163.50  1250.37
eigval :     1269.21  1295.74  1347.29  1374.24  1544.75  1736.23
eigval :     2781.37  2911.48  3397.55  3402.58  3458.70  3506.44

   temp. (K)  partition function   enthalpy   heat capacity  entropy
                                   cal/mol     cal/K/mol   cal/K/mol   J/K/mol
 298.15  VIB   38.5                 2665.753     18.010     16.045
         ROT  0.148E+06              888.752      2.981     26.633
         INT  0.568E+07             3554.505     20.991     42.679
         TR   0.827E+27             1481.254      4.968     39.389
         TOT                        5035.7591    25.9591    82.0674   343.3700

       T/K    H(0)-H(T)+PV         H(T)/Eh          T*S/Eh         G(T)/Eh
   ------------------------------------------------------------------------
    298.15    0.802499E-02    0.994578E-01    0.389929E-01    0.604649E-01
   ------------------------------------------------------------------------

         :::::::::::::::::::::::::::::::::::::::::::::::::::::
         ::                  THERMODYNAMIC                  ::
         :::::::::::::::::::::::::::::::::::::::::::::::::::::
         :: total free energy         -21.223196167227 Eh   ::
         ::.................................................::
         :: total energy              -21.283661071046 Eh   ::
         :: zero point energy           0.091432782173 Eh   ::
         :: G(RRHO) w/o ZPVE           -0.030967878354 Eh   ::
         :: G(RRHO) contrib.            0.060464903819 Eh   ::
         :::::::::::::::::::::::::::::::::::::::::::::::::::::

           -------------------------------------------------
          | TOTAL ENERGY              -21.283661071046 Eh   |
          | TOTAL ENTHALPY            -21.184203295964 Eh   |
          | TOTAL FREE ENERGY         -21.223196167227 Eh   |
          | GRADIENT NORM               0.000030097005 Eh/α |
          | HOMO-LUMO GAP               4.387945809600 eV   |
           -------------------------------------------------

 * finished run on 2025/01/10 at 14:24:11.873
normal termination of xtb
