   * xtb version 6.7.1 (edcfbbe) compiled by 'albert@albert-system' on 2024-07-22

   ID    Z sym.   atoms
    1    8 O      1, 7
    2    1 H      2, 3, 6, 8, 9, 12
    3    6 C      4, 10
    4    7 N      5, 11

          program call               : /home/adpal/xtb-dist/bin/xtb ./results/p_{0,13}_coordinatesxTB.xyz --ohess --uhf 1 --parallel 8
          :  Hamiltonian                  GFN2-xTB          :
 * total energy  :   -21.3024899 Eh     change        0.3197442E-13 Eh
   *** GEOMETRY OPTIMIZATION CONVERGED AFTER 1 ITERATIONS ***

 final structure:
================
12
 xtb: 6.7.1 (edcfbbe)
O            1.61250197646615        0.10214418479642       -0.29628794450980
H            2.30868003224951       -1.09518678545975        1.92721045830534
H            0.79308447018608        0.15776062357224        0.20764999278621
C            2.67044869815099        0.39054990625042        0.60543607103460
N            2.27736001284081       -0.07928571037419        1.91307694718203
H            2.79814626473517        1.48711221955824        0.67409639991707
O            3.42098256556872       -0.86691011205560       -1.95647433446623
H            2.93125420664376        0.25319481745314        2.61053730613182
H            2.52292288012968       -0.53616609419237       -1.76207045747158
C            4.19215057544772       -0.67829259618806       -0.89388166388839
N            3.93367341934486       -0.15003539200061        0.21580610483513
H            5.20160489823698       -1.04800506136005       -1.04498887985615

          :  Hamiltonian                  GFN2-xTB          :
         :: gradient norm              0.000044491004 Eh/a0 ::
         :: HOMO-LUMO gap              4.716395408132 eV    ::
         :: SCC energy               -21.494518252055 Eh    ::
         :: -> dispersion             -0.006326213338 Eh    ::
         :: repulsion energy           0.192028390404 Eh    ::

    * Orbital Energies and Occupations

         #    Occupation            Energy/Eh            Energy/eV
      -------------------------------------------------------------
         1        2.0000           -0.7225499             -19.6616
       ...           ...                  ...                  ...
         6        2.0000           -0.6084787             -16.5575
         7        2.0000           -0.5812277             -15.8160
         8        2.0000           -0.5703358             -15.5196
         9        2.0000           -0.5625758             -15.3085
        10        2.0000           -0.5522097             -15.0264
        11        2.0000           -0.5383024             -14.6480
        12        2.0000           -0.5214668             -14.1898
        13        2.0000           -0.4964498             -13.5091
        14        2.0000           -0.4710159             -12.8170
        15        2.0000           -0.4528543             -12.3228
        16        2.0000           -0.4167341             -11.3399
        17        2.0000           -0.4004547             -10.8969
        18        2.0000           -0.3934142             -10.7053 (HOMO)
        19                         -0.2200899              -5.9890 (LUMO)
        20                          0.0249396               0.6786
        21                          0.0605000               1.6463
        22                          0.0759138               2.0657
        23                          0.1048722               2.8537
        24                          0.1333145               3.6277
        25                          0.1527233               4.1558
        26                          0.1972057               5.3662
        27                          0.2336441               6.3578
        28                          0.2596136               7.0644
        29                          0.2958959               8.0517
        30                          0.6242812              16.9876
      -------------------------------------------------------------
                  HL-Gap            0.1733243 Eh            4.7164 eV

     #   Z          covCN         q      C6AA      α(0)
     1   8 O        1.655    -0.478    22.415     6.391
     2   1 H        0.860     0.159     1.342     1.815
     3   1 H        0.805     0.311     0.688     1.303
     4   6 C        3.607     0.267    16.973     5.953
     5   7 N        2.632    -0.367    29.474     8.063
     6   1 H        0.922     0.023     2.683     2.562
     7   8 O        1.658    -0.371    20.291     6.081
     8   1 H        0.860     0.162     1.323     1.802
     9   1 H        0.804     0.343     0.605     1.221
    10   6 C        2.709     0.221    23.339     7.908
    11   7 N        1.823    -0.327    29.335     8.025
    12   1 H        0.925     0.057     2.239     2.340

Wiberg/Mayer (AO) data.
largest (>0.10) Wiberg bond orders for each atom

     #   Z sym  total        # sym  WBO       # sym  WBO       # sym  WBO
 ---------------------------------------------------------------------------
     1   8 O    1.966 --     4 C    0.952     3 H    0.878
     2   1 H    0.975 --     5 N    0.959
     3   1 H    0.903 --     1 O    0.878
     4   6 C    3.951 --    11 N    1.015     5 N    1.010     1 O    0.952
                             6 H    0.940
     5   7 N    3.018 --     4 C    1.010     2 H    0.959     8 H    0.958
     6   1 H    0.999 --     4 C    0.940
     7   8 O    2.214 --    10 C    1.163     9 H    0.830    11 N    0.184
     8   1 H    0.974 --     5 N    0.958
     9   1 H    0.882 --     7 O    0.830
    10   6 C    3.943 --    11 N    1.780     7 O    1.163    12 H    0.943
    11   7 N    3.063 --    10 C    1.780     4 C    1.015     7 O    0.184
    12   1 H    0.997 --    10 C    0.943
 ---------------------------------------------------------------------------

molecular dipole:
                 x           y           z       tot (Debye)
 q only:       -0.397       0.024       0.384
   full:       -0.489      -0.017       0.401       1.607

 projected vibrational frequencies (cm⁻¹)
eigval :       -0.00    -0.00    -0.00     0.00     0.00     0.00
eigval :       52.90   207.46   266.29   307.40   323.85   391.00
eigval :      444.56   603.67   714.86   757.04   875.67   926.17
eigval :      934.38  1008.48  1094.27  1143.59  1150.90  1210.68
eigval :     1228.70  1304.43  1315.18  1335.36  1549.45  1758.44
eigval :     2819.34  3023.56  3324.34  3385.28  3448.29  3544.00

   temp. (K)  partition function   enthalpy   heat capacity  entropy
                                   cal/mol     cal/K/mol   cal/K/mol   J/K/mol
 298.15  VIB   25.5                 2455.613     17.286     14.129
         ROT  0.134E+06              888.752      2.981     26.439
         INT  0.341E+07             3344.365     20.267     40.568
         TR   0.827E+27             1481.254      4.968     39.389
         TOT                        4825.6191    25.2355    79.9572   334.5409

       T/K    H(0)-H(T)+PV         H(T)/Eh          T*S/Eh         G(T)/Eh
   ------------------------------------------------------------------------
    298.15    0.769011E-02    0.998409E-01    0.379902E-01    0.618507E-01
   ------------------------------------------------------------------------

         :::::::::::::::::::::::::::::::::::::::::::::::::::::
         ::                  THERMODYNAMIC                  ::
         :::::::::::::::::::::::::::::::::::::::::::::::::::::
         :: total free energy         -21.240639161557 Eh   ::
         ::.................................................::
         :: total energy              -21.302489861651 Eh   ::
         :: zero point energy           0.092150827474 Eh   ::
         :: G(RRHO) w/o ZPVE           -0.030300127380 Eh   ::
         :: G(RRHO) contrib.            0.061850700093 Eh   ::
         :::::::::::::::::::::::::::::::::::::::::::::::::::::

           -------------------------------------------------
          | TOTAL ENERGY              -21.302489861651 Eh   |
          | TOTAL ENTHALPY            -21.202648920603 Eh   |
          | TOTAL FREE ENERGY         -21.240639161557 Eh   |
          | GRADIENT NORM               0.000044493277 Eh/α |
          | HOMO-LUMO GAP               4.716395292407 eV   |
           -------------------------------------------------

 * finished run on 2025/01/10 at 14:24:12.544
normal termination of xtb
