   * xtb version 6.7.1 (edcfbbe) compiled by 'albert@albert-system' on 2024-07-22

   ID    Z sym.   atoms
    1    7 N      1, 6, 14
    2    1 H      2-4, 7, 10, 12, 15
    3    6 C      5, 9, 13
    4    8 O      8, 11

          program call               : /home/adpal/xtb-dist/bin/xtb ./results/p_{0,69}_coordinatesxTB.xyz --ohess --uhf 1 --parallel 8
          :  Hamiltonian                  GFN2-xTB          :
 * total energy  :   -26.7950008 Eh     change        0.0000000E+00 Eh
   *** GEOMETRY OPTIMIZATION CONVERGED AFTER 1 ITERATIONS ***

 final structure:
================
15
 xtb: 6.7.1 (edcfbbe)
N            4.72078298897827        0.48876766320844       -1.71690107923695
H            6.08191412879913        2.34846130407603        0.55652403304849
H            3.21968200294395        0.60727105092317        0.52297789155867
H            4.43821603948220       -0.31230110715305       -1.15694089768727
C            5.30294161740913        1.41103825318759       -1.09580506198341
N            5.60624184827136        1.52218171098295        0.23885558481587
H            5.65436177198348        2.25971826229603       -1.67544785988343
O            7.57636619747061       -0.25346530664939        1.27883060605204
C            6.66716588875537       -1.19533430911223        0.93908975127989
H            8.45662495134594       -0.64864241756570        1.28007742053777
O            5.46441314546303       -0.74900102529425        0.91656665811667
H            3.34991385317128        0.08572299772860        2.08233248190364
C            5.10965947400934        0.63753642944173        1.24526809794556
N            3.69828449710162        0.75252773887656        1.40511454459688
H            5.60119159481514        0.87385875505372        2.19868782893534

          :  Hamiltonian                  GFN2-xTB          :
         :: gradient norm              0.000019935962 Eh/a0 ::
         :: HOMO-LUMO gap              3.315557987813 eV    ::
         :: SCC energy               -27.048224939967 Eh    ::
         :: -> dispersion             -0.010468390463 Eh    ::
         :: repulsion energy           0.253224139467 Eh    ::

    * Orbital Energies and Occupations

         #    Occupation            Energy/Eh            Energy/eV
      -------------------------------------------------------------
         1        2.0000           -0.7429217             -20.2159
       ...           ...                  ...                  ...
        11        2.0000           -0.5609621             -15.2646
        12        2.0000           -0.5525569             -15.0358
        13        2.0000           -0.5470016             -14.8847
        14        2.0000           -0.5371636             -14.6170
        15        2.0000           -0.5116010             -13.9214
        16        2.0000           -0.4940494             -13.4438
        17        2.0000           -0.4902107             -13.3393
        18        2.0000           -0.4823761             -13.1261
        19        2.0000           -0.4605835             -12.5331
        20        2.0000           -0.4241400             -11.5414
        21        2.0000           -0.3982950             -10.8382
        22        2.0000           -0.3736051             -10.1663
        23        2.0000           -0.3673064              -9.9949 (HOMO)
        24                         -0.2454618              -6.6794 (LUMO)
        25                         -0.2029022              -5.5212
        26                         -0.0270729              -0.7367
        27                          0.0111220               0.3026
        28                          0.0448447               1.2203
        29                          0.0752266               2.0470
        30                          0.0996312               2.7111
        31                          0.1269912               3.4556
        32                          0.1403904               3.8202
        33                          0.1725124               4.6943
        34                          0.2452757               6.6743
       ...                                ...                  ...
        39                          0.6132461              16.6873
      -------------------------------------------------------------
                  HL-Gap            0.1218445 Eh            3.3156 eV

     #   Z          covCN         q      C6AA      α(0)
     1   7 N        1.773    -0.360    30.193     8.137
     2   1 H        0.860     0.170     1.275     1.769
     3   1 H        0.860     0.174     1.247     1.750
     4   1 H        0.860     0.146     1.430     1.873
     5   6 C        2.751     0.146    24.798     8.154
     6   7 N        2.686    -0.201    25.369     7.481
     7   1 H        0.925     0.036     2.497     2.471
     8   8 O        1.659    -0.365    20.186     6.065
     9   6 C        1.721     0.057    29.892     8.849
    10   1 H        0.805     0.310     0.693     1.307
    11   8 O        1.698    -0.219    17.644     5.671
    12   1 H        0.860     0.167     1.291     1.780
    13   6 C        3.600     0.250    17.231     6.005
    14   7 N        2.633    -0.353    29.103     8.012
    15   1 H        0.923     0.042     2.419     2.432

Wiberg/Mayer (AO) data.
largest (>0.10) Wiberg bond orders for each atom

     #   Z sym  total        # sym  WBO       # sym  WBO       # sym  WBO
 ---------------------------------------------------------------------------
     1   7 N    3.012 --     5 C    1.830     4 H    0.941     6 N    0.193
     2   1 H    0.971 --     6 N    0.945
     3   1 H    0.970 --    14 N    0.948
     4   1 H    0.979 --     1 N    0.941
     5   6 C    3.965 --     1 N    1.830     6 N    1.162     7 H    0.948
     6   7 N    3.380 --     5 C    1.162    13 C    1.008     2 H    0.945
                             1 N    0.193
     7   1 H    0.999 --     5 C    0.948
     8   8 O    2.243 --     9 C    1.242    10 H    0.889
     9   6 C    2.737 --    11 O    1.392     8 O    1.242
    10   1 H    0.904 --     8 O    0.889
    11   8 O    2.431 --     9 C    1.392    13 C    0.852
    12   1 H    0.972 --    14 N    0.954
    13   6 C    3.955 --    14 N    1.047     6 N    1.008    15 H    0.953
                            11 O    0.852
    14   7 N    3.048 --    13 C    1.047    12 H    0.954     3 H    0.948
    15   1 H    0.998 --    13 C    0.953
 ---------------------------------------------------------------------------

molecular dipole:
                 x           y           z       tot (Debye)
 q only:        0.375       0.374       0.763
   full:        0.620       0.640       1.268       3.938

 projected vibrational frequencies (cm⁻¹)
eigval :       -0.00    -0.00    -0.00    -0.00     0.00     0.00
eigval :       49.21    84.32   143.67   171.77   191.23   271.67
eigval :      315.27   337.26   379.27   467.94   502.09   641.67
eigval :      659.74   749.44   758.44   817.73   906.01   932.11
eigval :     1047.19  1083.21  1127.28  1151.47  1186.67  1195.03
eigval :     1226.93  1265.34  1318.98  1328.99  1344.91  1380.29
eigval :     1532.73  1729.18  2910.51  3004.20  3352.06  3408.30
eigval :     3446.65  3483.92  3524.81

   temp. (K)  partition function   enthalpy   heat capacity  entropy
                                   cal/mol     cal/K/mol   cal/K/mol   J/K/mol
 298.15  VIB   332.                 3957.707     25.383     24.055
         ROT  0.324E+06              888.752      2.981     28.194
         INT  0.107E+09             4846.459     28.364     52.249
         TR   0.123E+28             1481.254      4.968     40.170
         TOT                        6327.7128    33.3321    92.4191   386.6815

       T/K    H(0)-H(T)+PV         H(T)/Eh          T*S/Eh         G(T)/Eh
   ------------------------------------------------------------------------
    298.15    0.100839E-01    0.122688E+00    0.439113E-01    0.787767E-01
   ------------------------------------------------------------------------

         :::::::::::::::::::::::::::::::::::::::::::::::::::::
         ::                  THERMODYNAMIC                  ::
         :::::::::::::::::::::::::::::::::::::::::::::::::::::
         :: total free energy         -26.716224079196 Eh   ::
         ::.................................................::
         :: total energy              -26.795000800499 Eh   ::
         :: zero point energy           0.112604164659 Eh   ::
         :: G(RRHO) w/o ZPVE           -0.033827443355 Eh   ::
         :: G(RRHO) contrib.            0.078776721304 Eh   ::
         :::::::::::::::::::::::::::::::::::::::::::::::::::::

           -------------------------------------------------
          | TOTAL ENERGY              -26.795000800499 Eh   |
          | TOTAL ENTHALPY            -26.672312783549 Eh   |
          | TOTAL FREE ENERGY         -26.716224079196 Eh   |
          | GRADIENT NORM               0.000019933202 Eh/α |
          | HOMO-LUMO GAP               3.315557941446 eV   |
           -------------------------------------------------

 * finished run on 2025/01/10 at 14:27:08.946
normal termination of xtb
