   * xtb version 6.7.1 (edcfbbe) compiled by 'albert@albert-system' on 2024-07-22

   ID    Z sym.   atoms
    1    6 C      1, 7, 13
    2    7 N      2, 8, 14
    3    1 H      3, 5, 6, 9, 11, 12, 15
    4    8 O      4, 10

          program call               : /home/adpal/xtb-dist/bin/xtb ./results/p_{0,29}_coordinatesxTB.xyz --ohess --uhf 1 --parallel 8
          :  Hamiltonian                  GFN2-xTB          :
 * total energy  :   -26.8527400 Eh     change       -0.3552714E-13 Eh
   *** GEOMETRY OPTIMIZATION CONVERGED AFTER 1 ITERATIONS ***

 final structure:
================
15
 xtb: 6.7.1 (edcfbbe)
C            4.04321356774731       -0.79249308085695       -0.14369805682364
N            4.30332139949161       -1.98428917326650        0.13282506316025
H            4.13334209835371        0.08062224250350        0.52416868481823
O            2.77452170261560        0.38709374266833       -5.16239735031690
H            1.82293693572431        1.23203300320180       -3.03660515921282
H            5.36161134008533        1.14676846039740       -2.17993927944794
C            3.32102688293138        0.39816416106655       -4.09441778373721
N            2.79042893872165        0.94881181471248       -2.97332493931407
H            4.32849839792041       -0.01688613392907       -3.92249188665084
O            3.60312309292097       -0.48905725227818       -1.37536947602208
H            4.57155181318546        2.54418642442393       -1.79557742447660
H            4.61778125121919       -2.14563948680630        1.08242788930692
C            3.41363432827715        0.87601183554868       -1.66975146450047
N            4.66787662302516        1.56281895961867       -1.56879658732542
H            2.72019162778080        1.33428448299566       -0.94382222945740

          :  Hamiltonian                  GFN2-xTB          :
         :: gradient norm              0.000026080147 Eh/a0 ::
         :: HOMO-LUMO gap              4.325271913950 eV    ::
         :: SCC energy               -27.126689874812 Eh    ::
         :: -> dispersion             -0.009431162490 Eh    ::
         :: repulsion energy           0.273949838300 Eh    ::

    * Orbital Energies and Occupations

         #    Occupation            Energy/Eh            Energy/eV
      -------------------------------------------------------------
         1        2.0000           -0.7568675             -20.5954
       ...           ...                  ...                  ...
        11        2.0000           -0.5805507             -15.7976
        12        2.0000           -0.5619209             -15.2906
        13        2.0000           -0.5485345             -14.9264
        14        2.0000           -0.5416253             -14.7384
        15        2.0000           -0.5241577             -14.2631
        16        2.0000           -0.5225024             -14.2180
        17        2.0000           -0.5147020             -14.0058
        18        2.0000           -0.5030736             -13.6893
        19        2.0000           -0.4467057             -12.1555
        20        2.0000           -0.4425281             -12.0418
        21        2.0000           -0.4301992             -11.7063
        22        2.0000           -0.4126579             -11.2290
        23        2.0000           -0.3950897             -10.7509 (HOMO)
        24                         -0.2361389              -6.4257 (LUMO)
        25                         -0.2325064              -6.3268
        26                         -0.0320076              -0.8710
        27                         -0.0052985              -0.1442
        28                          0.0284140               0.7732
        29                          0.0669550               1.8219
        30                          0.1035541               2.8179
        31                          0.1209373               3.2909
        32                          0.1364880               3.7140
        33                          0.1520128               4.1365
        34                          0.1742810               4.7424
       ...                                ...                  ...
        39                          0.6317006              17.1894
      -------------------------------------------------------------
                  HL-Gap            0.1589508 Eh            4.3253 eV

     #   Z          covCN         q      C6AA      α(0)
     1   6 C        2.719     0.228    23.206     7.886
     2   7 N        1.774    -0.320    29.104     7.989
     3   1 H        0.923     0.001     3.036     2.725
     4   8 O        0.858    -0.379    21.268     6.183
     5   1 H        0.860     0.198     1.116     1.654
     6   1 H        0.860     0.173     1.252     1.753
     7   6 C        2.694     0.266    22.504     7.764
     8   7 N        2.683    -0.212    25.610     7.516
     9   1 H        0.923     0.023     2.695     2.567
    10   8 O        1.709    -0.250    18.136     5.750
    11   1 H        0.860     0.169     1.279     1.772
    12   1 H        0.860     0.164     1.310     1.793
    13   6 C        3.627     0.252    17.076     5.953
    14   7 N        2.630    -0.356    29.171     8.022
    15   1 H        0.923     0.041     2.435     2.441

Wiberg/Mayer (AO) data.
largest (>0.10) Wiberg bond orders for each atom

     #   Z sym  total        # sym  WBO       # sym  WBO       # sym  WBO
 ---------------------------------------------------------------------------
     1   6 C    3.926 --     2 N    1.875    10 O    1.092     3 H    0.930
     2   7 N    3.023 --     1 C    1.875    12 H    0.946    10 O    0.132
     3   1 H    1.000 --     1 C    0.930
     4   8 O    2.055 --     7 C    1.775     8 N    0.199
     5   1 H    0.961 --     8 N    0.929
     6   1 H    0.970 --    14 N    0.950
     7   6 C    3.945 --     4 O    1.775     8 N    1.225     9 H    0.921
     8   7 N    3.410 --     7 C    1.225    13 C    0.975     5 H    0.929
                             4 O    0.199
     9   1 H    0.999 --     7 C    0.921
    10   8 O    2.288 --     1 C    1.092    13 C    0.952     2 N    0.132
    11   1 H    0.971 --    14 N    0.954
    12   1 H    0.972 --     2 N    0.946
    13   6 C    3.948 --    14 N    1.030     8 N    0.975    10 O    0.952
                            15 H    0.950
    14   7 N    3.035 --    13 C    1.030    11 H    0.954     6 H    0.950
    15   1 H    0.998 --    13 C    0.950
 ---------------------------------------------------------------------------

molecular dipole:
                 x           y           z       tot (Debye)
 q only:        0.234       1.087       1.264
   full:        0.197       1.592       1.479       5.545

 projected vibrational frequencies (cm⁻¹)
eigval :       -0.00    -0.00    -0.00    -0.00     0.00     0.00
eigval :       59.83    76.78    91.18   106.84   174.39   244.27
eigval :      281.20   383.43   421.81   490.71   566.26   578.49
eigval :      712.46   772.85   906.71   941.95   946.41   968.12
eigval :     1016.01  1061.62  1116.23  1150.30  1208.48  1246.95
eigval :     1277.77  1306.24  1336.83  1366.71  1404.24  1526.17
eigval :     1736.60  1788.73  2793.33  2813.15  2846.74  3402.20
eigval :     3412.95  3431.13  3454.14

   temp. (K)  partition function   enthalpy   heat capacity  entropy
                                   cal/mol     cal/K/mol   cal/K/mol   J/K/mol
 298.15  VIB   604.                 4003.386     24.607     25.581
         ROT  0.418E+06              888.752      2.981     28.700
         INT  0.252E+09             4892.138     27.588     54.282
         TR   0.123E+28             1481.254      4.968     40.170
         TOT                        6373.3924    32.5558    94.4520   395.1871

       T/K    H(0)-H(T)+PV         H(T)/Eh          T*S/Eh         G(T)/Eh
   ------------------------------------------------------------------------
    298.15    0.101566E-01    0.122744E+00    0.448772E-01    0.778670E-01
   ------------------------------------------------------------------------

         :::::::::::::::::::::::::::::::::::::::::::::::::::::
         ::                  THERMODYNAMIC                  ::
         :::::::::::::::::::::::::::::::::::::::::::::::::::::
         :: total free energy         -26.774873072574 Eh   ::
         ::.................................................::
         :: total energy              -26.852740036513 Eh   ::
         :: zero point energy           0.112587506895 Eh   ::
         :: G(RRHO) w/o ZPVE           -0.034720542956 Eh   ::
         :: G(RRHO) contrib.            0.077866963939 Eh   ::
         :::::::::::::::::::::::::::::::::::::::::::::::::::::

           -------------------------------------------------
          | TOTAL ENERGY              -26.852740036513 Eh   |
          | TOTAL ENTHALPY            -26.729995882303 Eh   |
          | TOTAL FREE ENERGY         -26.774873072574 Eh   |
          | GRADIENT NORM               0.000026084745 Eh/α |
          | HOMO-LUMO GAP               4.325271906074 eV   |
           -------------------------------------------------

 * finished run on 2025/01/10 at 14:24:51.232
normal termination of xtb
