   * xtb version 6.7.1 (edcfbbe) compiled by 'albert@albert-system' on 2024-07-22

   ID    Z sym.   atoms
    1    8 O      1, 10, 13
    2    1 H      2, 3, 6, 9, 11, 12, 14, 15, 18
    3    6 C      4, 7, 16
    4    7 N      5, 8, 17

          program call               : /home/adpal/xtb-dist/bin/xtb ./results/p_{0,56}_coordinatesxTB.xyz --ohess --uhf 1 --parallel 8
          :  Hamiltonian                  GFN2-xTB          :
 * total energy  :   -31.9698081 Eh     change        0.0000000E+00 Eh
   *** GEOMETRY OPTIMIZATION CONVERGED AFTER 1 ITERATIONS ***

 final structure:
================
18
 xtb: 6.7.1 (edcfbbe)
O            2.86221494034590       -0.94216135533260        0.78547259673595
H            2.51757322823208        1.73706056789977       -0.84639099936404
H            5.65350822801777        2.75720656592786        0.13326117672411
C            2.34935474677695       -0.01432485944802        0.20237904347177
N            3.01233287515475        1.00044703081093       -0.37020312807287
H            1.25675586870602        0.07183918685468        0.07968246812183
C            4.44982152564655        1.16502520605490       -0.26410083986200
N            4.71871940585258        2.57355659867439       -0.20740364021900
H            4.75307036628354        0.70154878885307        0.69056270452627
O            5.70483906216289       -1.36516072196698       -2.56907829010117
H            4.63033925830547        2.97971648265714       -1.13300588010178
H            5.58542381030961       -0.77897100437994       -3.32383970695213
O            5.29693266741216       -1.59735044484070       -0.39523476286701
H            6.10171808678820        0.70400642391498       -1.34561429945146
H            4.54556234604267       -1.62686644206656        0.22471831527292
C            4.91507149814016       -0.90788905892530       -1.52696049793265
N            5.09940781675876        0.53769506278947       -1.41536997662285
H            3.84261426906433       -1.07467802747691       -1.75392428330635

          :  Hamiltonian                  GFN2-xTB          :
         :: gradient norm              0.000043944556 Eh/a0 ::
         :: HOMO-LUMO gap              4.392835000928 eV    ::
         :: SCC energy               -32.243457315511 Eh    ::
         :: -> dispersion             -0.012932023135 Eh    ::
         :: repulsion energy           0.273649217441 Eh    ::

    * Orbital Energies and Occupations

         #    Occupation            Energy/Eh            Energy/eV
      -------------------------------------------------------------
         1        2.0000           -0.7238161             -19.6960
       ...           ...                  ...                  ...
        15        2.0000           -0.5493907             -14.9497
        16        2.0000           -0.5382724             -14.6471
        17        2.0000           -0.5267800             -14.3344
        18        2.0000           -0.5207053             -14.1691
        19        2.0000           -0.5121713             -13.9369
        20        2.0000           -0.5025876             -13.6761
        21        2.0000           -0.4809642             -13.0877
        22        2.0000           -0.4519431             -12.2980
        23        2.0000           -0.4410901             -12.0027
        24        2.0000           -0.4291626             -11.6781
        25        2.0000           -0.4218749             -11.4798
        26        2.0000           -0.4078679             -11.0987
        27        2.0000           -0.3993594             -10.8671 (HOMO)
        28                         -0.2379257              -6.4743 (LUMO)
        29                         -0.0225980              -0.6149
        30                          0.0143208               0.3897
        31                          0.0339264               0.9232
        32                          0.0597707               1.6264
        33                          0.0710180               1.9325
        34                          0.0862655               2.3474
        35                          0.1102179               2.9992
        36                          0.1305369               3.5521
        37                          0.1435039               3.9049
        38                          0.1717884               4.6746
       ...                                ...                  ...
        45                          0.6086987              16.5635
      -------------------------------------------------------------
                  HL-Gap            0.1614337 Eh            4.3928 eV

     #   Z          covCN         q      C6AA      α(0)
     1   8 O        0.858    -0.413    21.949     6.281
     2   1 H        0.860     0.194     1.139     1.671
     3   1 H        0.860     0.164     1.308     1.792
     4   6 C        2.696     0.256    22.690     7.796
     5   7 N        2.690    -0.179    24.882     7.408
     6   1 H        0.923     0.022     2.709     2.574
     7   6 C        3.659     0.193    17.789     6.053
     8   7 N        2.638    -0.351    29.039     8.003
     9   1 H        0.923     0.048     2.342     2.393
    10   8 O        1.658    -0.427    21.377     6.242
    11   1 H        0.860     0.163     1.319     1.799
    12   1 H        0.805     0.309     0.694     1.309
    13   8 O        1.656    -0.450    21.836     6.308
    14   1 H        0.860     0.171     1.267     1.764
    15   1 H        0.804     0.335     0.625     1.242
    16   6 C        3.539     0.330    16.581     5.970
    17   7 N        2.680    -0.351    29.035     8.003
    18   1 H        0.922    -0.013     3.297     2.840

Wiberg/Mayer (AO) data.
largest (>0.10) Wiberg bond orders for each atom

     #   Z sym  total        # sym  WBO       # sym  WBO       # sym  WBO
 ---------------------------------------------------------------------------
     1   8 O    2.037 --     4 C    1.701     5 N    0.212
     2   1 H    0.962 --     5 N    0.934
     3   1 H    0.973 --     8 N    0.957
     4   6 C    3.950 --     1 O    1.701     5 N    1.293     6 H    0.924
     5   7 N    3.469 --     4 C    1.293     7 C    0.968     2 H    0.934
                             1 O    0.212
     6   1 H    0.999 --     4 C    0.924
     7   6 C    3.963 --     8 N    1.034    17 N    0.972     5 N    0.968
                             9 H    0.946
     8   7 N    3.028 --     7 C    1.034     3 H    0.957    11 H    0.956
     9   1 H    0.998 --     7 C    0.946
    10   8 O    1.985 --    16 C    1.002    12 H    0.887
    11   1 H    0.974 --     8 N    0.956
    12   1 H    0.904 --    10 O    0.887
    13   8 O    1.982 --    16 C    1.017    15 H    0.840
    14   1 H    0.971 --    17 N    0.940
    15   1 H    0.888 --    13 O    0.840
    16   6 C    3.944 --    13 O    1.017    10 O    1.002    17 N    0.960
                            18 H    0.944
    17   7 N    3.048 --     7 C    0.972    16 C    0.960    14 H    0.940
    18   1 H    1.000 --    16 C    0.944
 ---------------------------------------------------------------------------

molecular dipole:
                 x           y           z       tot (Debye)
 q only:       -0.449       1.889      -0.694
   full:       -0.564       2.181      -0.868       6.137

 projected vibrational frequencies (cm⁻¹)
eigval :       -0.00    -0.00    -0.00    -0.00     0.00     0.00
eigval :       85.50   111.41   132.10   169.39   204.42   234.77
eigval :      237.71   263.50   344.86   393.20   436.99   491.84
eigval :      512.85   543.26   562.30   593.65   740.22   844.98
eigval :      920.26   926.58   929.64  1009.24  1049.02  1077.03
eigval :     1105.07  1128.13  1140.66  1211.85  1226.31  1266.36
eigval :     1288.67  1307.50  1316.25  1364.18  1367.23  1386.93
eigval :     1414.31  1546.18  1748.05  2788.90  2812.16  2840.68
eigval :     3327.53  3344.23  3401.62  3448.90  3468.42  3555.96

   temp. (K)  partition function   enthalpy   heat capacity  entropy
                                   cal/mol     cal/K/mol   cal/K/mol   J/K/mol
 298.15  VIB   360.                 4596.284     30.977     27.009
         ROT  0.529E+06              888.752      2.981     29.171
         INT  0.190E+09             5485.036     33.958     56.180
         TR   0.152E+28             1481.254      4.968     40.597
         TOT                        6966.2901    38.9258    96.7768   404.9142

       T/K    H(0)-H(T)+PV         H(T)/Eh          T*S/Eh         G(T)/Eh
   ------------------------------------------------------------------------
    298.15    0.111015E-01    0.151484E+00    0.459818E-01    0.105502E+00
   ------------------------------------------------------------------------

         :::::::::::::::::::::::::::::::::::::::::::::::::::::
         ::                  THERMODYNAMIC                  ::
         :::::::::::::::::::::::::::::::::::::::::::::::::::::
         :: total free energy         -31.864305970517 Eh   ::
         ::.................................................::
         :: total energy              -31.969808098070 Eh   ::
         :: zero point energy           0.140382428803 Eh   ::
         :: G(RRHO) w/o ZPVE           -0.034880301250 Eh   ::
         :: G(RRHO) contrib.            0.105502127552 Eh   ::
         :::::::::::::::::::::::::::::::::::::::::::::::::::::

           -------------------------------------------------
          | TOTAL ENERGY              -31.969808098070 Eh   |
          | TOTAL ENTHALPY            -31.818324179404 Eh   |
          | TOTAL FREE ENERGY         -31.864305970517 Eh   |
          | GRADIENT NORM               0.000043938811 Eh/α |
          | HOMO-LUMO GAP               4.392835021740 eV   |
           -------------------------------------------------

 * finished run on 2025/01/10 at 14:26:25.948
normal termination of xtb
