   * xtb version 6.7.1 (edcfbbe) compiled by 'albert@albert-system' on 2024-07-22

   ID    Z sym.   atoms
    1    6 C      1, 4, 10
    2    7 N      2, 5, 11
    3    1 H      3, 6, 8, 9, 12
    4    8 O      7

          program call               : /home/adpal/xtb-dist/bin/xtb ./results/p_{0,19}_coordinatesxTB.xyz --ohess --uhf 1 --parallel 8
          :  Hamiltonian                  GFN2-xTB          :
 * total energy  :   -21.7530200 Eh     change       -0.3197442E-13 Eh
   *** GEOMETRY OPTIMIZATION CONVERGED AFTER 1 ITERATIONS ***

 final structure:
================
12
 xtb: 6.7.1 (edcfbbe)
C            0.92189031119684        0.04622319810715        0.60495231892950
N            0.06864060093738        0.05754137183692       -0.32175665059688
H            0.72120085461453        0.15865404527046        1.68076525950847
C            2.77053649231418       -0.74869150624419       -0.56781012870901
N            2.26591679253047       -0.00595043295378        0.34894082044585
H            2.17287573290851       -1.47363145021057       -1.12154972032231
O            4.70050194819504        0.74241117048739        0.76724949364865
H           -0.89523335391257        0.17092123550064       -0.02397245020757
H            3.71744190871191        0.70586305141307        0.95719970899902
C            4.92485827397299       -0.01510958426660       -0.27196385802501
N            4.08576987381902       -0.73586643644171       -0.91804865916885
H            5.96113056471082       -0.03838466249780       -0.59580613450156

          :  Hamiltonian                  GFN2-xTB          :
         :: gradient norm              0.000034815436 Eh/a0 ::
         :: HOMO-LUMO gap              2.177106583355 eV    ::
         :: SCC energy               -22.014147321408 Eh    ::
         :: -> dispersion             -0.007311642822 Eh    ::
         :: repulsion energy           0.261127335755 Eh    ::

    * Orbital Energies and Occupations

         #    Occupation            Energy/Eh            Energy/eV
      -------------------------------------------------------------
         1        2.0000           -0.7522360             -20.4694
       ...           ...                  ...                  ...
         7        2.0000           -0.5916908             -16.1007
         8        2.0000           -0.5816051             -15.8263
         9        2.0000           -0.5740908             -15.6218
        10        2.0000           -0.5515395             -15.0082
        11        2.0000           -0.5434641             -14.7884
        12        2.0000           -0.5205791             -14.1657
        13        2.0000           -0.5119644             -13.9313
        14        2.0000           -0.5011084             -13.6359
        15        2.0000           -0.4777004             -12.9989
        16        2.0000           -0.4311897             -11.7333
        17        2.0000           -0.4166894             -11.3387
        18        2.0000           -0.4059497             -11.0465
        19        2.0000           -0.3870002             -10.5308 (HOMO)
        20                         -0.3069930              -8.3537 (LUMO)
        21                         -0.2314079              -6.2969
        22                         -0.1817569              -4.9459
        23                          0.0580460               1.5795
        24                          0.0922865               2.5112
        25                          0.1157847               3.1507
        26                          0.1298318               3.5329
        27                          0.1963646               5.3434
        28                          0.2161174               5.8809
        29                          0.2772534               7.5444
        30                          0.3749903              10.2040
       ...                                ...                  ...
        33                          0.6139969              16.7077
      -------------------------------------------------------------
                  HL-Gap            0.0800072 Eh            2.1771 eV

     #   Z          covCN         q      C6AA      α(0)
     1   6 C        2.783     0.162    24.480     8.104
     2   7 N        1.782    -0.332    29.429     8.034
     3   1 H        0.923     0.004     2.997     2.707
     4   6 C        2.842     0.171    24.308     8.080
     5   7 N        1.841    -0.255    27.495     7.771
     6   1 H        0.924     0.047     2.353     2.399
     7   8 O        1.654    -0.331    19.567     5.971
     8   1 H        0.860     0.146     1.426     1.870
     9   1 H        0.802     0.352     0.584     1.201
    10   6 C        2.748     0.231    23.158     7.880
    11   7 N        1.827    -0.271    27.893     7.826
    12   1 H        0.925     0.076     2.023     2.224

Wiberg/Mayer (AO) data.
largest (>0.10) Wiberg bond orders for each atom

     #   Z sym  total        # sym  WBO       # sym  WBO       # sym  WBO
 ---------------------------------------------------------------------------
     1   6 C    3.968 --     2 N    1.846     5 N    1.150     3 H    0.931
     2   7 N    3.023 --     1 C    1.846     8 H    0.952
     3   1 H    1.000 --     1 C    0.931
     4   6 C    3.955 --     5 N    1.669    11 N    1.203     6 H    0.943
     5   7 N    3.219 --     4 C    1.669     1 C    1.150
     6   1 H    0.998 --     4 C    0.943
     7   8 O    2.295 --    10 C    1.263     9 H    0.770    11 N    0.156
     8   1 H    0.978 --     2 N    0.952
     9   1 H    0.876 --     7 O    0.770
    10   6 C    3.933 --    11 N    1.609     7 O    1.263    12 H    0.944
    11   7 N    3.066 --    10 C    1.609     4 C    1.203     7 O    0.156
    12   1 H    0.994 --    10 C    0.944
 ---------------------------------------------------------------------------

molecular dipole:
                 x           y           z       tot (Debye)
 q only:        0.431       0.025       0.363
   full:       -0.022       0.027       0.817       2.078

 projected vibrational frequencies (cm⁻¹)
eigval :       -0.00    -0.00    -0.00     0.00     0.00     0.00
eigval :       59.68   141.53   150.17   201.27   324.35   454.21
eigval :      461.00   648.72   774.74   803.13   821.20   894.95
eigval :      947.69   972.89  1061.77  1108.51  1184.24  1191.30
eigval :     1257.36  1310.05  1353.17  1358.78  1568.48  1645.36
eigval :     1677.86  2796.61  2822.75  2955.90  3030.46  3375.11

   temp. (K)  partition function   enthalpy   heat capacity  entropy
                                   cal/mol     cal/K/mol   cal/K/mol   J/K/mol
 298.15  VIB   47.5                 2655.108     17.545     16.210
         ROT  0.212E+06              888.752      2.981     27.353
         INT  0.101E+08             3543.860     20.526     43.563
         TR   0.954E+27             1481.254      4.968     39.673
         TOT                        5025.1144    25.4937    83.2355   348.2574

       T/K    H(0)-H(T)+PV         H(T)/Eh          T*S/Eh         G(T)/Eh
   ------------------------------------------------------------------------
    298.15    0.800803E-02    0.931050E-01    0.395479E-01    0.535571E-01
   ------------------------------------------------------------------------

         :::::::::::::::::::::::::::::::::::::::::::::::::::::
         ::                  THERMODYNAMIC                  ::
         :::::::::::::::::::::::::::::::::::::::::::::::::::::
         :: total free energy         -21.699462898826 Eh   ::
         ::.................................................::
         :: total energy              -21.753019985652 Eh   ::
         :: zero point energy           0.085096933508 Eh   ::
         :: G(RRHO) w/o ZPVE           -0.031539846682 Eh   ::
         :: G(RRHO) contrib.            0.053557086827 Eh   ::
         :::::::::::::::::::::::::::::::::::::::::::::::::::::

           -------------------------------------------------
          | TOTAL ENERGY              -21.753019985652 Eh   |
          | TOTAL ENTHALPY            -21.659915022634 Eh   |
          | TOTAL FREE ENERGY         -21.699462898826 Eh   |
          | GRADIENT NORM               0.000034823476 Eh/α |
          | HOMO-LUMO GAP               2.177106468866 eV   |
           -------------------------------------------------

 * finished run on 2025/01/10 at 14:24:21.710
normal termination of xtb
