   * xtb version 6.7.1 (edcfbbe) compiled by 'albert@albert-system' on 2024-07-22

   ID    Z sym.   atoms
    1    8 O      1
    2    1 H      2, 3, 6, 8-10, 13
    3    6 C      4, 11
    4    7 N      5, 7, 12

          program call               : /home/adpal/xtb-dist/bin/xtb ./results/p_{0,9}_coordinatesxTB.xyz --ohess --uhf 1 --parallel 8
          :  Hamiltonian                  GFN2-xTB          :
 * total energy  :   -20.6494165 Eh     change       -0.1065814E-13 Eh
   *** GEOMETRY OPTIMIZATION CONVERGED AFTER 1 ITERATIONS ***

 final structure:
================
13
 xtb: 6.7.1 (edcfbbe)
O            1.39257169461111       -0.73745968789286       -2.69374629236484
H            5.42872802235314       -0.93615944540524       -3.07301825189072
H            1.13647559428093        0.09718193252696       -2.27077928873989
C            2.64710938344159       -1.01219551486052       -2.35463984621202
N            3.30044139802886       -0.23557882523288       -1.61444908429025
H            2.99620363555970       -1.95172313476131       -2.78789644374400
N            5.28135478031254        0.77453708051953       -1.00106448638762
H            6.23767574486079       -1.65816493306604       -1.83504606029711
H            6.25677239106662        0.66432286683952       -0.75041715382986
H            5.21268830895137        1.35767536429717       -1.82722417668937
C            4.65023319709087       -0.50979811055605       -1.22819431332534
N            5.31978272893986       -1.39660177462081       -2.17426526296567
H            4.63132312050273       -1.03266581778752       -0.25950933926323

          :  Hamiltonian                  GFN2-xTB          :
         :: gradient norm              0.000028424897 Eh/a0 ::
         :: HOMO-LUMO gap              4.028695607533 eV    ::
         :: SCC energy               -20.865665933595 Eh    ::
         :: -> dispersion             -0.006971689377 Eh    ::
         :: repulsion energy           0.216249453147 Eh    ::

    * Orbital Energies and Occupations

         #    Occupation            Energy/Eh            Energy/eV
      -------------------------------------------------------------
         1        2.0000           -0.7255980             -19.7445
       ...           ...                  ...                  ...
         6        2.0000           -0.5941093             -16.1665
         7        2.0000           -0.5675584             -15.4440
         8        2.0000           -0.5475768             -14.9003
         9        2.0000           -0.5412751             -14.7288
        10        2.0000           -0.5283570             -14.3773
        11        2.0000           -0.5145171             -14.0007
        12        2.0000           -0.5021565             -13.6644
        13        2.0000           -0.4972948             -13.5321
        14        2.0000           -0.4623658             -12.5816
        15        2.0000           -0.4192458             -11.4083
        16        2.0000           -0.3987591             -10.8508
        17        2.0000           -0.3851599             -10.4807
        18        2.0000           -0.3665985              -9.9757 (HOMO)
        19                         -0.2185466              -5.9470 (LUMO)
        20                          0.0414207               1.1271
        21                          0.0533718               1.4523
        22                          0.0760383               2.0691
        23                          0.1075101               2.9255
        24                          0.1204560               3.2778
        25                          0.1501332               4.0853
        26                          0.1857300               5.0540
        27                          0.2217543               6.0342
        28                          0.2246561               6.1132
        29                          0.2532622               6.8916
       ...                                ...                  ...
        31                          0.6007200              16.3464
      -------------------------------------------------------------
                  HL-Gap            0.1480518 Eh            4.0287 eV

     #   Z          covCN         q      C6AA      α(0)
     1   8 O        1.661    -0.354    19.980     6.034
     2   1 H        0.860     0.140     1.468     1.898
     3   1 H        0.805     0.328     0.644     1.260
     4   6 C        2.720     0.213    23.490     7.934
     5   7 N        1.834    -0.296    28.523     7.914
     6   1 H        0.924     0.040     2.450     2.448
     7   7 N        2.638    -0.355    29.140     8.017
     8   1 H        0.860     0.144     1.444     1.882
     9   1 H        0.860     0.141     1.462     1.894
    10   1 H        0.860     0.147     1.419     1.866
    11   6 C        3.676     0.199    17.657     6.020
    12   7 N        2.630    -0.382    29.880     8.118
    13   1 H        0.923     0.035     2.519     2.482

Wiberg/Mayer (AO) data.
largest (>0.10) Wiberg bond orders for each atom

     #   Z sym  total        # sym  WBO       # sym  WBO       # sym  WBO
 ---------------------------------------------------------------------------
     1   8 O    2.199 --     4 C    1.149     3 H    0.867     5 N    0.150
     2   1 H    0.980 --    12 N    0.964
     3   1 H    0.893 --     1 O    0.867
     4   6 C    3.936 --     5 N    1.801     1 O    1.149     6 H    0.931
     5   7 N    3.066 --     4 C    1.801    11 C    1.011     1 O    0.150
     6   1 H    0.998 --     4 C    0.931
     7   7 N    3.023 --    11 C    1.006     9 H    0.964    10 H    0.963
     8   1 H    0.979 --    12 N    0.964
     9   1 H    0.979 --     7 N    0.964
    10   1 H    0.978 --     7 N    0.963
    11   6 C    3.975 --     5 N    1.011     7 N    1.006    12 N    0.986
                            13 H    0.943
    12   7 N    3.012 --    11 C    0.986     2 H    0.964     8 H    0.964
    13   1 H    0.999 --    11 C    0.943
 ---------------------------------------------------------------------------

molecular dipole:
                 x           y           z       tot (Debye)
 q only:        0.146       0.217      -0.119
   full:        0.743       0.171      -0.418       2.209

 projected vibrational frequencies (cm⁻¹)
eigval :       -0.00    -0.00    -0.00     0.00     0.00     0.00
eigval :       78.44   188.64   194.17   233.39   298.88   383.09
eigval :      447.64   517.16   616.91   657.16   858.95   896.30
eigval :      938.75   944.98  1024.59  1076.92  1098.34  1159.69
eigval :     1178.55  1247.86  1290.70  1303.22  1330.20  1542.37
eigval :     1551.72  1759.00  2871.73  2936.28  3384.30  3399.81
eigval :     3430.61  3437.95  3445.49

   temp. (K)  partition function   enthalpy   heat capacity  entropy
                                   cal/mol     cal/K/mol   cal/K/mol   J/K/mol
 298.15  VIB   29.6                 2718.935     19.084     15.735
         ROT  0.159E+06              888.752      2.981     26.781
         INT  0.471E+07             3607.687     22.065     42.516
         TR   0.814E+27             1481.254      4.968     39.356
         TOT                        5088.9409    27.0334    81.8719   342.5520

       T/K    H(0)-H(T)+PV         H(T)/Eh          T*S/Eh         G(T)/Eh
   ------------------------------------------------------------------------
    298.15    0.810974E-02    0.112276E+00    0.389000E-01    0.733762E-01
   ------------------------------------------------------------------------

         :::::::::::::::::::::::::::::::::::::::::::::::::::::
         ::                  THERMODYNAMIC                  ::
         :::::::::::::::::::::::::::::::::::::::::::::::::::::
         :: total free energy         -20.576040312948 Eh   ::
         ::.................................................::
         :: total energy              -20.649416480448 Eh   ::
         :: zero point energy           0.104166400559 Eh   ::
         :: G(RRHO) w/o ZPVE           -0.030790233058 Eh   ::
         :: G(RRHO) contrib.            0.073376167501 Eh   ::
         :::::::::::::::::::::::::::::::::::::::::::::::::::::

           -------------------------------------------------
          | TOTAL ENERGY              -20.649416480448 Eh   |
          | TOTAL ENTHALPY            -20.537140336346 Eh   |
          | TOTAL FREE ENERGY         -20.576040312948 Eh   |
          | GRADIENT NORM               0.000028437343 Eh/α |
          | HOMO-LUMO GAP               4.028695677894 eV   |
           -------------------------------------------------

 * finished run on 2025/01/10 at 14:24:09.469
normal termination of xtb
