   * xtb version 6.7.1 (edcfbbe) compiled by 'albert@albert-system' on 2024-07-22

   ID    Z sym.   atoms
    1    7 N      1, 6
    2    1 H      2-4, 7
    3    6 C      5

          program call               : /home/adpal/xtb-dist/bin/xtb ./results/p_{0,0}_coordinatesxTB.xyz --ohess --uhf 1 --parallel 8
          :  Hamiltonian                  GFN2-xTB          :
 * total energy  :    -9.9875713 Eh     change        0.7105427E-14 Eh
   *** GEOMETRY OPTIMIZATION CONVERGED AFTER 1 ITERATIONS ***

 final structure:
================
7
 xtb: 6.7.1 (edcfbbe)
N            0.99792149740880       -0.07612217930795        0.00680123717649
H            3.96435924085669       -1.05999361574599        0.46788705329884
H            0.49555942717230        0.70790908995186       -0.36061479879512
H            0.49758731456368       -0.86462029233760        0.37632872357142
C            2.34720618909357       -0.11921783590810        0.02700500514672
N            2.95338108887906       -1.12290833326212        0.49737543263175
H            2.81225524202591        0.78449316660991       -0.39651265303010

          :  Hamiltonian                  GFN2-xTB          :
         :: gradient norm              0.000009097090 Eh/a0 ::
         :: HOMO-LUMO gap              4.671348010274 eV    ::
         :: SCC energy               -10.129294413892 Eh    ::
         :: -> dispersion             -0.002181268837 Eh    ::
         :: repulsion energy           0.141723152598 Eh    ::

    * Orbital Energies and Occupations

         #    Occupation            Energy/Eh            Energy/eV
      -------------------------------------------------------------
         1        2.0000           -0.6491427             -17.6641
         2        2.0000           -0.6149414             -16.7334
         3        2.0000           -0.5705623             -15.5258
         4        2.0000           -0.5573596             -15.1665
         5        2.0000           -0.4973569             -13.5338
         6        2.0000           -0.4872089             -13.2576
         7        2.0000           -0.4785654             -13.0224
         8        2.0000           -0.3823922             -10.4054
         9        2.0000           -0.3619904              -9.8503 (HOMO)
        10                         -0.1903216              -5.1789 (LUMO)
        11                          0.0185103               0.5037
        12                          0.1140885               3.1045
        13                          0.1858616               5.0576
        14                          0.2494728               6.7885
        15                          0.3784780              10.2989
        16                          0.6007358              16.3469
      -------------------------------------------------------------
                  HL-Gap            0.1716689 Eh            4.6713 eV

     #   Z          covCN         q      C6AA      α(0)
     1   7 N        2.648    -0.251    26.534     7.650
     2   1 H        0.860     0.132     1.528     1.936
     3   1 H        0.861     0.170     1.276     1.769
     4   1 H        0.860     0.188     1.171     1.695
     5   6 C        2.744     0.153    24.666     8.132
     6   7 N        1.787    -0.380    30.741     8.212
     7   1 H        0.923    -0.012     3.272     2.829

Wiberg/Mayer (AO) data.
largest (>0.10) Wiberg bond orders for each atom

     #   Z sym  total        # sym  WBO       # sym  WBO       # sym  WBO
 ---------------------------------------------------------------------------
     1   7 N    3.355 --     5 C    1.245     3 H    0.957     4 H    0.946
                             6 N    0.187
     2   1 H    0.983 --     6 N    0.956
     3   1 H    0.971 --     1 N    0.957
     4   1 H    0.965 --     1 N    0.946
     5   6 C    3.968 --     6 N    1.784     1 N    1.245     7 H    0.936
     6   7 N    2.982 --     5 C    1.784     2 H    0.956     1 N    0.187
     7   1 H    1.000 --     5 C    0.936
 ---------------------------------------------------------------------------

molecular dipole:
                 x           y           z       tot (Debye)
 q only:       -0.650       0.445      -0.208
   full:       -0.586       0.837      -0.392       2.782

 projected vibrational frequencies (cm⁻¹)
eigval :       -0.00    -0.00    -0.00     0.00     0.00     0.00
eigval :     -272.75   493.65   551.19   764.95   975.90   990.40
eigval :     1128.06  1289.97  1358.35  1464.54  1731.93  2803.57
eigval :     3402.23  3500.84  3581.67

   temp. (K)  partition function   enthalpy   heat capacity  entropy
                                   cal/mol     cal/K/mol   cal/K/mol   J/K/mol
 298.15  VIB   1.25                  399.048      4.553      1.778
         ROT  0.103E+05              888.752      2.981     21.337
         INT  0.128E+05             1287.801      7.534     23.115
         TR   0.283E+27             1481.254      4.968     37.258
         TOT                        2769.0545    12.5024    60.3728   252.5999

       T/K    H(0)-H(T)+PV         H(T)/Eh          T*S/Eh         G(T)/Eh
   ------------------------------------------------------------------------
    298.15    0.441277E-02    0.591737E-01    0.286851E-01    0.304886E-01
   ------------------------------------------------------------------------

         :::::::::::::::::::::::::::::::::::::::::::::::::::::
         ::                  THERMODYNAMIC                  ::
         :::::::::::::::::::::::::::::::::::::::::::::::::::::
         :: total free energy          -9.957082632227 Eh   ::
         ::.................................................::
         :: total energy               -9.987571261294 Eh   ::
         :: zero point energy           0.054760935677 Eh   ::
         :: G(RRHO) w/o ZPVE           -0.024272306609 Eh   ::
         :: G(RRHO) contrib.            0.030488629068 Eh   ::
         :::::::::::::::::::::::::::::::::::::::::::::::::::::

           -------------------------------------------------
          | TOTAL ENERGY               -9.987571261294 Eh   |
          | TOTAL ENTHALPY             -9.928397556420 Eh   |
          | TOTAL FREE ENERGY          -9.957082632227 Eh   |
          | GRADIENT NORM               0.000009073119 Eh/α |
          | HOMO-LUMO GAP               4.671347767726 eV   |
           -------------------------------------------------

 * finished run on 2025/01/10 at 14:23:59.650
normal termination of xtb
