   * xtb version 6.7.1 (edcfbbe) compiled by 'albert@albert-system' on 2024-07-22

   ID    Z sym.   atoms
    1    8 O      1, 7, 13
    2    1 H      2, 3, 6, 8, 9, 12, 14, 15, 18
    3    6 C      4, 10, 16
    4    7 N      5, 11, 17

          program call               : /home/adpal/xtb-dist/bin/xtb ./results/p_{0,44}_coordinatesxTB.xyz --ohess --uhf 1 --parallel 8
          :  Hamiltonian                  GFN2-xTB          :
 * total energy  :   -31.9519864 Eh     change        0.3552714E-13 Eh
   *** GEOMETRY OPTIMIZATION CONVERGED AFTER 1 ITERATIONS ***

 final structure:
================
18
 xtb: 6.7.1 (edcfbbe)
O            2.06598938425399       -0.68566427681207        0.51460006437186
H            1.86510400186931       -3.54193969404952       -0.89065270361675
H            3.05817747458593       -2.89616427184919        0.04320826268150
C            1.59770872895057       -1.57673092550410       -0.43507942262461
N            2.05656273456792       -2.92014810116979       -0.11433316779302
H            1.98685986304028       -1.20396606891258       -1.40357314253234
O           -1.74590340713659       -4.69727005578654       -2.03091050787025
H            0.44233382776897       -5.11315484480563       -3.52190937208777
H           -1.15251782457906       -5.27027416292604       -1.52624426033528
C           -1.00435899996011       -3.85600250427825       -2.86121234304800
N           -0.27399582709694       -4.50361770477849       -3.89937489507841
H           -1.74378704152012       -3.17869617180839       -3.31331370822179
O           -0.05464060032295       -3.13377876108019       -2.11202715454918
H            1.58848496762425       -0.85824660402699        1.33518336968586
H           -0.88982510389819       -5.03352251843949       -4.50107757756948
C           -0.53428910937811       -2.23118076758474       -1.22032463490459
N            0.15666299568114       -1.52760303143398       -0.45777698578413
H           -1.61581606445055       -2.13602953475446       -1.18039182072357

          :  Hamiltonian                  GFN2-xTB          :
         :: gradient norm              0.000012756645 Eh/a0 ::
         :: HOMO-LUMO gap              3.865603502594 eV    ::
         :: SCC energy               -32.226837804865 Eh    ::
         :: -> dispersion             -0.011273583366 Eh    ::
         :: repulsion energy           0.274851381681 Eh    ::

    * Orbital Energies and Occupations

         #    Occupation            Energy/Eh            Energy/eV
      -------------------------------------------------------------
         1        2.0000           -0.7530032             -20.4903
       ...           ...                  ...                  ...
        15        2.0000           -0.5420263             -14.7493
        16        2.0000           -0.5307849             -14.4434
        17        2.0000           -0.5280590             -14.3692
        18        2.0000           -0.5167444             -14.0613
        19        2.0000           -0.4996665             -13.5966
        20        2.0000           -0.4891551             -13.3106
        21        2.0000           -0.4781880             -13.0122
        22        2.0000           -0.4656541             -12.6711
        23        2.0000           -0.4393044             -11.9541
        24        2.0000           -0.4283665             -11.6564
        25        2.0000           -0.4169552             -11.3459
        26        2.0000           -0.4016518             -10.9295
        27        2.0000           -0.3781938             -10.2912 (HOMO)
        28                         -0.2361355              -6.4256 (LUMO)
        29                         -0.0006734              -0.0183
        30                          0.0383714               1.0441
        31                          0.0511449               1.3917
        32                          0.0578172               1.5733
        33                          0.0852757               2.3205
        34                          0.0937879               2.5521
        35                          0.1069091               2.9091
        36                          0.1242651               3.3814
        37                          0.1371802               3.7329
        38                          0.1535999               4.1797
       ...                                ...                  ...
        45                          0.5969237              16.2431
      -------------------------------------------------------------
                  HL-Gap            0.1420583 Eh            3.8656 eV

     #   Z          covCN         q      C6AA      α(0)
     1   8 O        1.659    -0.433    21.491     6.258
     2   1 H        0.860     0.152     1.387     1.845
     3   1 H        0.860     0.158     1.351     1.820
     4   6 C        3.615     0.268    16.909     5.934
     5   7 N        2.631    -0.375    29.692     8.093
     6   1 H        0.922     0.015     2.817     2.625
     7   8 O        1.656    -0.460    22.045     6.338
     8   1 H        0.860     0.168     1.286     1.776
     9   1 H        0.805     0.308     0.697     1.311
    10   6 C        3.562     0.320    16.531     5.927
    11   7 N        2.631    -0.358    29.235     8.030
    12   1 H        0.923     0.044     2.390     2.418
    13   8 O        1.706    -0.293    18.870     5.865
    14   1 H        0.805     0.315     0.677     1.293
    15   1 H        0.860     0.174     1.249     1.751
    16   6 C        2.744     0.214    23.465     7.931
    17   7 N        1.823    -0.270    27.851     7.820
    18   1 H        0.925     0.052     2.297     2.370

Wiberg/Mayer (AO) data.
largest (>0.10) Wiberg bond orders for each atom

     #   Z sym  total        # sym  WBO       # sym  WBO       # sym  WBO
 ---------------------------------------------------------------------------
     1   8 O    1.989 --     4 C    1.014    14 H    0.882
     2   1 H    0.977 --     5 N    0.958
     3   1 H    0.975 --     5 N    0.959
     4   6 C    3.957 --     1 O    1.014     5 N    0.988    17 N    0.984
                             6 H    0.937
     5   7 N    2.998 --     4 C    0.988     3 H    0.959     2 H    0.958
     6   1 H    1.000 --     4 C    0.937
     7   8 O    1.982 --    10 C    0.983     9 H    0.884
     8   1 H    0.972 --    11 N    0.954
     9   1 H    0.905 --     7 O    0.884
    10   6 C    3.928 --    11 N    1.035     7 O    0.983    12 H    0.945
                            13 O    0.939
    11   7 N    3.032 --    10 C    1.035     8 H    0.954    15 H    0.953
    12   1 H    0.998 --    10 C    0.945
    13   8 O    2.264 --    16 C    1.061    10 C    0.939    17 N    0.151
    14   1 H    0.901 --     1 O    0.882
    15   1 H    0.969 --    11 N    0.953
    16   6 C    3.930 --    17 N    1.853    13 O    1.061    18 H    0.944
    17   7 N    3.089 --    16 C    1.853     4 C    0.984    13 O    0.151
    18   1 H    0.997 --    16 C    0.944
 ---------------------------------------------------------------------------

molecular dipole:
                 x           y           z       tot (Debye)
 q only:       -0.189      -1.009      -0.345
   full:       -0.147      -1.623      -0.678       4.488

 projected vibrational frequencies (cm⁻¹)
eigval :       -0.00    -0.00     0.00     0.00     0.00     0.00
eigval :       32.25    36.97    91.83   104.05   215.84   219.47
eigval :      258.59   303.81   320.95   363.37   378.11   440.25
eigval :      452.91   522.01   564.03   614.20   704.79   866.41
eigval :      872.97   902.11   956.19   979.99  1010.69  1016.23
eigval :     1083.89  1099.38  1121.09  1127.72  1166.99  1232.84
eigval :     1239.97  1276.45  1303.49  1324.05  1326.98  1342.95
eigval :     1523.27  1525.69  1757.52  2773.68  2913.80  3000.36
eigval :     3403.29  3413.68  3443.61  3464.07  3500.90  3536.34

   temp. (K)  partition function   enthalpy   heat capacity  entropy
                                   cal/mol     cal/K/mol   cal/K/mol   J/K/mol
 298.15  VIB  0.433E+04             4997.830     30.436     30.655
         ROT  0.596E+06              888.752      2.981     29.408
         INT  0.258E+10             5886.583     33.417     60.063
         TR   0.152E+28             1481.254      4.968     40.597
         TOT                        7367.8366    38.3852   100.6595   421.1592

       T/K    H(0)-H(T)+PV         H(T)/Eh          T*S/Eh         G(T)/Eh
   ------------------------------------------------------------------------
    298.15    0.117414E-01    0.151006E+00    0.478266E-01    0.103179E+00
   ------------------------------------------------------------------------

         :::::::::::::::::::::::::::::::::::::::::::::::::::::
         ::                  THERMODYNAMIC                  ::
         :::::::::::::::::::::::::::::::::::::::::::::::::::::
         :: total free energy         -31.848807156423 Eh   ::
         ::.................................................::
         :: total energy              -31.951986423184 Eh   ::
         :: zero point energy           0.139264433266 Eh   ::
         :: G(RRHO) w/o ZPVE           -0.036085166504 Eh   ::
         :: G(RRHO) contrib.            0.103179266761 Eh   ::
         :::::::::::::::::::::::::::::::::::::::::::::::::::::

           -------------------------------------------------
          | TOTAL ENERGY              -31.951986423184 Eh   |
          | TOTAL ENTHALPY            -31.800980594947 Eh   |
          | TOTAL FREE ENERGY         -31.848807156423 Eh   |
          | GRADIENT NORM               0.000012758547 Eh/α |
          | HOMO-LUMO GAP               3.865603024433 eV   |
           -------------------------------------------------

 * finished run on 2025/01/10 at 14:25:52.506
normal termination of xtb
