   * xtb version 6.7.1 (edcfbbe) compiled by 'albert@albert-system' on 2024-07-22

   ID    Z sym.   atoms
    1    8 O      1, 7, 13
    2    1 H      2, 3, 6, 8, 9, 12, 14, 15, 18
    3    6 C      4, 10, 16
    4    7 N      5, 11, 17

          program call               : /home/adpal/xtb-dist/bin/xtb ./results/p_{0,45}_coordinatesxTB.xyz --ohess --uhf 1 --parallel 8
          :  Hamiltonian                  GFN2-xTB          :
 * total energy  :   -31.9062088 Eh     change       -0.1421085E-13 Eh
   *** GEOMETRY OPTIMIZATION CONVERGED AFTER 1 ITERATIONS ***

 final structure:
================
18
 xtb: 6.7.1 (edcfbbe)
O            0.53601098022616        0.01670700344552        0.19535443999344
H            4.96345653201525       -1.28194961626415        0.70013091155026
H            2.60958647222068       -0.71366155409471        0.95239550060499
C            1.36618398652902       -0.62920455042870       -0.67095936420650
N            2.48417630973722       -0.93736842702613       -0.03654728060488
H           -0.26942421893948        0.26154626933055       -0.27510761901184
O            2.15600927839519       -4.89735198985739        0.06741342579924
H            3.61345160455608       -4.78630481511802       -2.09602557306743
H            2.99930056670548       -5.23833294716171        0.39152182770785
C            2.41545567095019       -3.81952854903720       -0.77145042163404
N            2.79958936802922       -4.18027321547085       -2.10953891336295
H            1.48669910624848       -3.23202400111240       -0.83373777884260
O            3.44418912297833       -3.06864982661158       -0.19020852657605
H            5.53488066319822       -1.64173857712873       -0.79649436197621
H            2.04353285392399       -4.65797480409888       -2.58153375796609
C            3.52496930460138       -1.70828714328062       -0.64046288754218
N            4.79634346922710       -1.16614799957239       -0.29411139301919
H            3.37915892939745       -1.68632525651284       -1.72858822784559

          :  Hamiltonian                  GFN2-xTB          :
         :: gradient norm              0.000034889556 Eh/a0 ::
         :: HOMO-LUMO gap              3.739386470374 eV    ::
         :: SCC energy               -32.161168919124 Eh    ::
         :: -> dispersion             -0.011658801051 Eh    ::
         :: repulsion energy           0.254960090207 Eh    ::

    * Orbital Energies and Occupations

         #    Occupation            Energy/Eh            Energy/eV
      -------------------------------------------------------------
         1        2.0000           -0.7241340             -19.7047
       ...           ...                  ...                  ...
        15        2.0000           -0.5360065             -14.5855
        16        2.0000           -0.5294231             -14.4063
        17        2.0000           -0.5221969             -14.2097
        18        2.0000           -0.5030834             -13.6896
        19        2.0000           -0.5014871             -13.6462
        20        2.0000           -0.4927335             -13.4080
        21        2.0000           -0.4665681             -12.6960
        22        2.0000           -0.4561145             -12.4115
        23        2.0000           -0.4309683             -11.7272
        24        2.0000           -0.4237187             -11.5300
        25        2.0000           -0.4042808             -11.0010
        26        2.0000           -0.3971332             -10.8065
        27        2.0000           -0.3523080              -9.5868 (HOMO)
        28                         -0.2148880              -5.8474 (LUMO)
        29                          0.0087599               0.2384
        30                          0.0242404               0.6596
        31                          0.0484113               1.3173
        32                          0.0603028               1.6409
        33                          0.0735834               2.0023
        34                          0.0933770               2.5409
        35                          0.1297350               3.5303
        36                          0.1396461               3.8000
        37                          0.1447766               3.9396
        38                          0.1652982               4.4980
       ...                                ...                  ...
        45                          0.4276819              11.6378
      -------------------------------------------------------------
                  HL-Gap            0.1374199 Eh            3.7394 eV

     #   Z          covCN         q      C6AA      α(0)
     1   8 O        1.667    -0.370    20.268     6.078
     2   1 H        0.860     0.167     1.291     1.780
     3   1 H        0.860     0.162     1.322     1.801
     4   6 C        1.777    -0.058    32.798     9.258
     5   7 N        2.694    -0.117    23.558     7.209
     6   1 H        0.805     0.298     0.726     1.338
     7   8 O        1.657    -0.448    21.809     6.304
     8   1 H        0.860     0.160     1.337     1.811
     9   1 H        0.805     0.311     0.688     1.303
    10   6 C        3.553     0.320    16.593     5.951
    11   7 N        2.629    -0.379    29.787     8.106
    12   1 H        0.923     0.035     2.514     2.479
    13   8 O        1.700    -0.374    20.340     6.089
    14   1 H        0.860     0.168     1.284     1.775
    15   1 H        0.860     0.165     1.302     1.788
    16   6 C        3.621     0.240    17.277     5.993
    17   7 N        2.635    -0.342    28.803     7.971
    18   1 H        0.923     0.061     2.192     2.315

Wiberg/Mayer (AO) data.
largest (>0.10) Wiberg bond orders for each atom

     #   Z sym  total        # sym  WBO       # sym  WBO       # sym  WBO
 ---------------------------------------------------------------------------
     1   8 O    2.213 --     4 C    1.212     6 H    0.896
     2   1 H    0.972 --    17 N    0.954
     3   1 H    0.974 --     5 N    0.916
     4   6 C    2.755 --     5 N    1.467     1 O    1.212
     5   7 N    3.537 --     4 C    1.467    16 C    1.001     3 H    0.916
     6   1 H    0.911 --     1 O    0.896
     7   8 O    1.982 --    10 C    0.991     9 H    0.883
     8   1 H    0.974 --    11 N    0.958
     9   1 H    0.903 --     7 O    0.883
    10   6 C    3.933 --    11 N    1.012     7 O    0.991    13 O    0.962
                            12 H    0.945
    11   7 N    3.023 --    10 C    1.012     8 H    0.958    15 H    0.958
    12   1 H    0.999 --    10 C    0.945
    13   8 O    2.065 --    10 C    0.962    16 C    0.911
    14   1 H    0.971 --    17 N    0.955
    15   1 H    0.973 --    11 N    0.958
    16   6 C    3.944 --    17 N    1.045     5 N    1.001    18 H    0.949
                            13 O    0.911
    17   7 N    3.038 --    16 C    1.045    14 H    0.955     2 H    0.954
    18   1 H    0.996 --    16 C    0.949
 ---------------------------------------------------------------------------

molecular dipole:
                 x           y           z       tot (Debye)
 q only:        0.572      -0.144      -0.393
   full:        0.662      -0.604       0.148       2.309

 projected vibrational frequencies (cm⁻¹)
eigval :       -0.00    -0.00     0.00     0.00     0.00     0.00
eigval :       38.98    52.27    84.01   152.86   180.48   218.34
eigval :      258.56   274.06   292.19   331.38   409.48   461.11
eigval :      498.10   536.96   545.15   588.02   608.39   774.34
eigval :      894.09   894.80   955.67   971.82   988.20  1062.13
eigval :     1097.51  1107.60  1123.45  1144.97  1187.76  1211.39
eigval :     1240.53  1269.00  1301.96  1319.76  1337.90  1357.41
eigval :     1461.90  1537.74  1544.31  2895.09  2917.85  3225.21
eigval :     3400.39  3400.89  3448.09  3459.42  3522.29  3533.47

   temp. (K)  partition function   enthalpy   heat capacity  entropy
                                   cal/mol     cal/K/mol   cal/K/mol   J/K/mol
 298.15  VIB  0.266E+04             5024.491     31.221     30.768
         ROT  0.649E+06              888.752      2.981     29.577
         INT  0.173E+10             5913.243     34.202     60.345
         TR   0.152E+28             1481.254      4.968     40.597
         TOT                        7394.4968    39.1701   100.9420   422.3414

       T/K    H(0)-H(T)+PV         H(T)/Eh          T*S/Eh         G(T)/Eh
   ------------------------------------------------------------------------
    298.15    0.117839E-01    0.151019E+00    0.479608E-01    0.103058E+00
   ------------------------------------------------------------------------

         :::::::::::::::::::::::::::::::::::::::::::::::::::::
         ::                  THERMODYNAMIC                  ::
         :::::::::::::::::::::::::::::::::::::::::::::::::::::
         :: total free energy         -31.803150346035 Eh   ::
         ::.................................................::
         :: total energy              -31.906208828917 Eh   ::
         :: zero point energy           0.139235417117 Eh   ::
         :: G(RRHO) w/o ZPVE           -0.036176934236 Eh   ::
         :: G(RRHO) contrib.            0.103058482882 Eh   ::
         :::::::::::::::::::::::::::::::::::::::::::::::::::::

           -------------------------------------------------
          | TOTAL ENERGY              -31.906208828917 Eh   |
          | TOTAL ENTHALPY            -31.755189531072 Eh   |
          | TOTAL FREE ENERGY         -31.803150346035 Eh   |
          | GRADIENT NORM               0.000034894186 Eh/α |
          | HOMO-LUMO GAP               3.739386473028 eV   |
           -------------------------------------------------

 * finished run on 2025/01/10 at 14:25:57.216
normal termination of xtb
