   * xtb version 6.7.1 (edcfbbe) compiled by 'albert@albert-system' on 2024-07-22

   ID    Z sym.   atoms
    1    8 O      1, 7, 13
    2    1 H      2, 3, 6, 8, 9, 12, 14, 15, 18
    3    6 C      4, 10, 16
    4    7 N      5, 11, 17

          program call               : /home/adpal/xtb-dist/bin/xtb ./results/p_{0,50}_coordinatesxTB.xyz --ohess --uhf 1 --parallel 8
          :  Hamiltonian                  GFN2-xTB          :
 * total energy  :   -31.9801643 Eh     change       -0.7105427E-14 Eh
   *** GEOMETRY OPTIMIZATION CONVERGED AFTER 1 ITERATIONS ***

 final structure:
================
18
 xtb: 6.7.1 (edcfbbe)
O            1.07351689583972        0.24019078293614        0.72431818675567
H            4.39210645100700       -1.54056519560785        2.93322968757727
H            1.51224425409933       -1.17185332681886        3.14475023054089
C            2.28738087213899        0.20775238968620        0.68956579044154
N            3.03798198592602       -0.84289814412552        1.06757581964759
H            2.89489030645225        1.05230935105334        0.33992081760379
O            1.26451180938736       -2.38521014448711        0.84475319324497
H            1.86543562120943       -2.75217992268835        3.39752236934000
H            0.72400416793992       -1.57185755846976        0.76837090604026
C            2.39838993328942       -2.07140675642257        1.55478751497167
N            2.21082666180820       -1.89320635357928        2.98437528091338
H            3.10330086334352       -2.89986639844575        1.40638885690170
O            4.95736373886620       -1.62738778907000        2.14822188181542
H            4.60251245105338        0.94258592377774        2.21832102296955
H            5.89974566502284        0.67153690626675        1.24406102916584
C            4.49533098881856       -0.77824795455635        1.14682316531984
N            4.89292099938131        0.59204437048543        1.31079429207164
H            4.93666633441582       -1.15194017993374        0.20978995467784

          :  Hamiltonian                  GFN2-xTB          :
         :: gradient norm              0.000021792984 Eh/a0 ::
         :: HOMO-LUMO gap              4.625706562664 eV    ::
         :: SCC energy               -32.250538670461 Eh    ::
         :: -> dispersion             -0.013169664525 Eh    ::
         :: repulsion energy           0.270374324303 Eh    ::

    * Orbital Energies and Occupations

         #    Occupation            Energy/Eh            Energy/eV
      -------------------------------------------------------------
         1        2.0000           -0.7262689             -19.7628
       ...           ...                  ...                  ...
        15        2.0000           -0.5496255             -14.9561
        16        2.0000           -0.5445122             -14.8169
        17        2.0000           -0.5307038             -14.4412
        18        2.0000           -0.5232035             -14.2371
        19        2.0000           -0.5165556             -14.0562
        20        2.0000           -0.5001353             -13.6094
        21        2.0000           -0.4847767             -13.1914
        22        2.0000           -0.4676554             -12.7256
        23        2.0000           -0.4507741             -12.2662
        24        2.0000           -0.4254129             -11.5761
        25        2.0000           -0.4222563             -11.4902
        26        2.0000           -0.4138798             -11.2622
        27        2.0000           -0.4044260             -11.0050 (HOMO)
        28                         -0.2344345              -6.3793 (LUMO)
        29                         -0.0401449              -1.0924
        30                          0.0358454               0.9754
        31                          0.0370460               1.0081
        32                          0.0471384               1.2827
        33                          0.0614184               1.6713
        34                          0.1033643               2.8127
        35                          0.1109703               3.0197
        36                          0.1146975               3.1211
        37                          0.1363211               3.7095
        38                          0.1482926               4.0352
       ...                                ...                  ...
        45                          0.5936222              16.1533
      -------------------------------------------------------------
                  HL-Gap            0.1699916 Eh            4.6257 eV

     #   Z          covCN         q      C6AA      α(0)
     1   8 O        0.857    -0.420    22.087     6.301
     2   1 H        0.804     0.320     0.664     1.280
     3   1 H        0.860     0.165     1.303     1.788
     4   6 C        2.706     0.252    22.754     7.808
     5   7 N        2.737    -0.163    24.532     7.356
     6   1 H        0.924     0.039     2.458     2.452
     7   8 O        1.656    -0.455    21.953     6.325
     8   1 H        0.860     0.167     1.294     1.782
     9   1 H        0.803     0.339     0.614     1.231
    10   6 C        3.603     0.258    17.100     5.978
    11   7 N        2.634    -0.384    29.928     8.125
    12   1 H        0.924     0.059     2.208     2.324
    13   8 O        1.656    -0.452    21.879     6.314
    14   1 H        0.860     0.164     1.313     1.795
    15   1 H        0.860     0.175     1.243     1.747
    16   6 C        3.601     0.246    17.293     6.015
    17   7 N        2.633    -0.365    29.416     8.055
    18   1 H        0.923     0.055     2.259     2.350

Wiberg/Mayer (AO) data.
largest (>0.10) Wiberg bond orders for each atom

     #   Z sym  total        # sym  WBO       # sym  WBO       # sym  WBO
 ---------------------------------------------------------------------------
     1   8 O    2.030 --     4 C    1.690     5 N    0.201
     2   1 H    0.898 --    13 O    0.864
     3   1 H    0.973 --    11 N    0.955
     4   6 C    3.943 --     1 O    1.690     5 N    1.276     6 H    0.923
     5   7 N    3.482 --     4 C    1.276    16 C    0.947    10 C    0.933
                             1 O    0.201
     6   1 H    0.998 --     4 C    0.923
     7   8 O    1.989 --    10 C    1.032     9 H    0.826
     8   1 H    0.972 --    11 N    0.955
     9   1 H    0.885 --     7 O    0.826
    10   6 C    3.949 --     7 O    1.032    11 N    0.997    12 H    0.949
                             5 N    0.933
    11   7 N    3.022 --    10 C    0.997     3 H    0.955     8 H    0.955
    12   1 H    0.996 --    10 C    0.949
    13   8 O    1.985 --    16 C    1.002     2 H    0.864
    14   1 H    0.973 --    17 N    0.955
    15   1 H    0.969 --    17 N    0.952
    16   6 C    3.951 --    17 N    1.026    13 O    1.002     5 N    0.947
                            18 H    0.945
    17   7 N    3.029 --    16 C    1.026    14 H    0.955    15 H    0.952
    18   1 H    0.997 --    16 C    0.945
 ---------------------------------------------------------------------------

molecular dipole:
                 x           y           z       tot (Debye)
 q only:        0.888       0.178       0.705
   full:        0.842       0.255       0.972       3.332

 projected vibrational frequencies (cm⁻¹)
eigval :       -0.00    -0.00    -0.00     0.00     0.00     0.00
eigval :       36.11    84.47   133.55   213.28   266.67   289.43
eigval :      307.40   327.23   364.42   412.32   456.59   462.54
eigval :      495.60   534.37   564.59   628.86   681.65   831.28
eigval :      914.66   932.23   948.41  1027.53  1058.80  1069.38
eigval :     1100.72  1103.67  1120.10  1149.09  1217.57  1227.19
eigval :     1309.62  1315.08  1326.94  1344.84  1357.40  1390.13
eigval :     1541.42  1543.79  1723.46  2882.16  2882.95  2932.04
eigval :     3247.79  3382.20  3396.12  3406.73  3428.72  3449.23

   temp. (K)  partition function   enthalpy   heat capacity  entropy
                                   cal/mol     cal/K/mol   cal/K/mol   J/K/mol
 298.15  VIB   498.                 4430.186     29.864     25.860
         ROT  0.467E+06              888.752      2.981     28.923
         INT  0.233E+09             5318.938     32.845     54.783
         TR   0.152E+28             1481.254      4.968     40.597
         TOT                        6800.1919    37.8131    95.3802   399.0707

       T/K    H(0)-H(T)+PV         H(T)/Eh          T*S/Eh         G(T)/Eh
   ------------------------------------------------------------------------
    298.15    0.108368E-01    0.151674E+00    0.453182E-01    0.106356E+00
   ------------------------------------------------------------------------

         :::::::::::::::::::::::::::::::::::::::::::::::::::::
         ::                  THERMODYNAMIC                  ::
         :::::::::::::::::::::::::::::::::::::::::::::::::::::
         :: total free energy         -31.873808693783 Eh   ::
         ::.................................................::
         :: total energy              -31.980164346157 Eh   ::
         :: zero point energy           0.140837064644 Eh   ::
         :: G(RRHO) w/o ZPVE           -0.034481412270 Eh   ::
         :: G(RRHO) contrib.            0.106355652374 Eh   ::
         :::::::::::::::::::::::::::::::::::::::::::::::::::::

           -------------------------------------------------
          | TOTAL ENERGY              -31.980164346157 Eh   |
          | TOTAL ENTHALPY            -31.828490485911 Eh   |
          | TOTAL FREE ENERGY         -31.873808693783 Eh   |
          | GRADIENT NORM               0.000021796239 Eh/α |
          | HOMO-LUMO GAP               4.625706475134 eV   |
           -------------------------------------------------

 * finished run on 2025/01/10 at 14:26:18.889
normal termination of xtb
