   * xtb version 6.7.1 (edcfbbe) compiled by 'albert@albert-system' on 2024-07-22

   ID    Z sym.   atoms
    1    6 C      1, 8
    2    7 N      2, 4, 9
    3    1 H      3, 5-7, 10

          program call               : /home/adpal/xtb-dist/bin/xtb ./results/p_{0,2}_coordinatesxTB.xyz --ohess --uhf 1 --parallel 8
          :  Hamiltonian                  GFN2-xTB          :
 * total energy  :   -15.5531151 Eh     change        0.2486900E-13 Eh
   *** GEOMETRY OPTIMIZATION CONVERGED AFTER 1 ITERATIONS ***

 final structure:
================
10
 xtb: 6.7.1 (edcfbbe)
C           -0.56254520639054       -1.40768531619604        1.30176391841502
N           -0.73969524467022       -1.18224932532747        0.07408518263785
H           -1.34211955163503       -1.55642493370381        2.06345536202436
N            0.69983728065829       -1.48762448419781        1.80182826857680
H            2.41069313157113       -1.95396028928101        4.42337564354106
H           -1.70751175184120       -1.13692792515240       -0.22272757142693
H            1.46288003222902       -1.35895083050829        1.14812491103210
C            1.03113261154757       -1.72385770741958        3.09971087525196
N            2.24395329992794       -1.77415283597980        3.44016418568320
H            0.15706539860305       -1.85386635223380        3.75479922426458

          :  Hamiltonian                  GFN2-xTB          :
         :: gradient norm              0.000039079244 Eh/a0 ::
         :: HOMO-LUMO gap              3.638706330620 eV    ::
         :: SCC energy               -15.773178703487 Eh    ::
         :: -> dispersion             -0.004727913055 Eh    ::
         :: repulsion energy           0.220063588925 Eh    ::

    * Orbital Energies and Occupations

         #    Occupation            Energy/Eh            Energy/eV
      -------------------------------------------------------------
         1        2.0000           -0.6837089             -18.6047
         2        2.0000           -0.6697268             -18.2242
         3        2.0000           -0.6355528             -17.2943
         4        2.0000           -0.6045281             -16.4500
         5        2.0000           -0.5952001             -16.1962
         6        2.0000           -0.5474413             -14.8966
         7        2.0000           -0.5385193             -14.6539
         8        2.0000           -0.5211436             -14.1810
         9        2.0000           -0.5110189             -13.9055
        10        2.0000           -0.4935540             -13.4303
        11        2.0000           -0.4744615             -12.9108
        12        2.0000           -0.4035778             -10.9819
        13        2.0000           -0.3916142             -10.6564
        14        2.0000           -0.3849477             -10.4750 (HOMO)
        15                         -0.2512277              -6.8363 (LUMO)
        16                         -0.1874596              -5.1010
        17                          0.0197283               0.5368
        18                          0.0728689               1.9829
        19                          0.1197239               3.2579
        20                          0.1716028               4.6695
        21                          0.1874840               5.1017
        22                          0.2599679               7.0741
        23                          0.3777290              10.2785
        24                          0.5780120              15.7285
        25                          0.5944570              16.1760
      -------------------------------------------------------------
                  HL-Gap            0.1337200 Eh            3.6387 eV

     #   Z          covCN         q      C6AA      α(0)
     1   6 C        2.756     0.144    24.858     8.164
     2   7 N        1.788    -0.349    29.896     8.098
     3   1 H        0.923     0.007     2.937     2.680
     4   7 N        2.714    -0.113    23.475     7.196
     5   1 H        0.860     0.149     1.411     1.861
     6   1 H        0.860     0.149     1.411     1.861
     7   1 H        0.860     0.213     1.044     1.601
     8   6 C        2.756     0.144    24.858     8.164
     9   7 N        1.788    -0.349    29.896     8.098
    10   1 H        0.923     0.007     2.937     2.680

Wiberg/Mayer (AO) data.
largest (>0.10) Wiberg bond orders for each atom

     #   Z sym  total        # sym  WBO       # sym  WBO       # sym  WBO
 ---------------------------------------------------------------------------
     1   6 C    3.965 --     2 N    1.816     4 N    1.180     3 H    0.933
     2   7 N    3.007 --     1 C    1.816     6 H    0.952     4 N    0.115
     3   1 H    1.000 --     1 C    0.933
     4   7 N    3.550 --     1 C    1.180     8 C    1.180     7 H    0.917
                             2 N    0.115     9 N    0.115
     5   1 H    0.977 --     9 N    0.952
     6   1 H    0.977 --     2 N    0.952
     7   1 H    0.955 --     4 N    0.917
     8   6 C    3.965 --     9 N    1.816     4 N    1.180    10 H    0.933
     9   7 N    3.007 --     8 C    1.816     5 H    0.952     4 N    0.115
    10   1 H    1.000 --     8 C    0.933
 ---------------------------------------------------------------------------

molecular dipole:
                 x           y           z       tot (Debye)
 q only:       -0.246      -0.042       0.211
   full:       -0.838      -0.141       0.718       2.826

 projected vibrational frequencies (cm⁻¹)
eigval :       -0.00    -0.00     0.00     0.00     0.00     0.00
eigval :      121.59   226.19   249.73   527.22   538.02   700.20
eigval :      768.80   778.67   965.16   987.52  1037.56  1089.14
eigval :     1250.12  1274.60  1278.81  1371.80  1439.44  1708.56
eigval :     1721.64  2821.14  2830.90  3403.69  3403.95  3409.29

   temp. (K)  partition function   enthalpy   heat capacity  entropy
                                   cal/mol     cal/K/mol   cal/K/mol   J/K/mol
 298.15  VIB   6.42                 1622.082     12.250      9.125
         ROT  0.287E+05              888.752      2.981     23.376
         INT  0.184E+06             2510.834     15.231     32.501
         TR   0.580E+27             1481.254      4.968     38.683
         TOT                        3992.0878    20.1988    71.1837   297.8328

       T/K    H(0)-H(T)+PV         H(T)/Eh          T*S/Eh         G(T)/Eh
   ------------------------------------------------------------------------
    298.15    0.636180E-02    0.836002E-01    0.338217E-01    0.497786E-01
   ------------------------------------------------------------------------

         :::::::::::::::::::::::::::::::::::::::::::::::::::::
         ::                  THERMODYNAMIC                  ::
         :::::::::::::::::::::::::::::::::::::::::::::::::::::
         :: total free energy         -15.503336559286 Eh   ::
         ::.................................................::
         :: total energy              -15.553115114562 Eh   ::
         :: zero point energy           0.077238450493 Eh   ::
         :: G(RRHO) w/o ZPVE           -0.027459895217 Eh   ::
         :: G(RRHO) contrib.            0.049778555276 Eh   ::
         :::::::::::::::::::::::::::::::::::::::::::::::::::::

           -------------------------------------------------
          | TOTAL ENERGY              -15.553115114562 Eh   |
          | TOTAL ENTHALPY            -15.469514867197 Eh   |
          | TOTAL FREE ENERGY         -15.503336559286 Eh   |
          | GRADIENT NORM               0.000039077273 Eh/α |
          | HOMO-LUMO GAP               3.638706330564 eV   |
           -------------------------------------------------

 * finished run on 2025/01/10 at 14:24:01.307
normal termination of xtb
