   * xtb version 6.7.1 (edcfbbe) compiled by 'albert@albert-system' on 2024-07-22

   ID    Z sym.   atoms
    1    6 C      1, 7, 13
    2    7 N      2, 8, 14
    3    1 H      3, 5, 6, 9, 11, 12, 15
    4    8 O      4, 10

          program call               : /home/adpal/xtb-dist/bin/xtb ./results/p_{0,25}_coordinatesxTB.xyz --ohess --uhf 1 --parallel 8
          :  Hamiltonian                  GFN2-xTB          :
 * total energy  :   -26.8351798 Eh     change        0.3197442E-13 Eh
   *** GEOMETRY OPTIMIZATION CONVERGED AFTER 1 ITERATIONS ***

 final structure:
================
15
 xtb: 6.7.1 (edcfbbe)
C            3.50194476755699       -0.93511192212087       -0.63222139805753
N            4.09801442618348       -1.85820684363689       -1.22741195980679
H            2.90389836688938       -0.12299467979276       -1.09032750544613
O            3.08045306348014        1.69519551590768        4.31795943423799
H            1.16434080470065       -0.17561011304912        4.24114855111301
H            3.53750951864687        0.93473469375451        4.70027457410147
C            2.26770107074283        1.22755650946196        3.28152129403024
N            1.00679991751597        0.67696820928228        3.71335821744952
H            2.04878893846549        2.10429134215728        2.64807866988062
O            3.56098485553181       -0.87719117896202        0.70809618967148
H            0.52920330220501        1.34181972455328        4.31079398492899
H            4.01862101132765       -1.85363579517049       -2.23708516350033
C            2.92767541337299        0.11219647802500        1.34071069290241
N            2.97231650080175        0.18800807604166        2.58926337405575
H            2.38590804257863        0.82650998354852        0.69267104443903

          :  Hamiltonian                  GFN2-xTB          :
         :: gradient norm              0.000031112234 Eh/a0 ::
         :: HOMO-LUMO gap              3.300133643342 eV    ::
         :: SCC energy               -27.106166946289 Eh    ::
         :: -> dispersion             -0.008607230149 Eh    ::
         :: repulsion energy           0.270987105085 Eh    ::

    * Orbital Energies and Occupations

         #    Occupation            Energy/Eh            Energy/eV
      -------------------------------------------------------------
         1        2.0000           -0.7694936             -20.9390
       ...           ...                  ...                  ...
        11        2.0000           -0.5712689             -15.5450
        12        2.0000           -0.5565973             -15.1458
        13        2.0000           -0.5394754             -14.6799
        14        2.0000           -0.5299690             -14.4212
        15        2.0000           -0.5225731             -14.2199
        16        2.0000           -0.5177189             -14.0878
        17        2.0000           -0.4963972             -13.5077
        18        2.0000           -0.4798546             -13.0575
        19        2.0000           -0.4457407             -12.1292
        20        2.0000           -0.4390909             -11.9483
        21        2.0000           -0.4132718             -11.2457
        22        2.0000           -0.4066244             -11.0648
        23        2.0000           -0.3968932             -10.8000 (HOMO)
        24                         -0.2756155              -7.4999 (LUMO)
        25                         -0.2234712              -6.0810
        26                          0.0013302               0.0362
        27                          0.0583497               1.5878
        28                          0.0676358               1.8405
        29                          0.0915319               2.4907
        30                          0.1079208               2.9367
        31                          0.1262551               3.4356
        32                          0.1315129               3.5786
        33                          0.1553230               4.2266
        34                          0.2077135               5.6522
       ...                                ...                  ...
        39                          0.5917524              16.1024
      -------------------------------------------------------------
                  HL-Gap            0.1212777 Eh            3.3001 eV

     #   Z          covCN         q      C6AA      α(0)
     1   6 C        2.738     0.223    23.302     7.903
     2   7 N        1.774    -0.303    28.670     7.929
     3   1 H        0.922     0.002     3.029     2.722
     4   8 O        1.657    -0.451    21.867     6.313
     5   1 H        0.860     0.163     1.318     1.799
     6   1 H        0.805     0.312     0.685     1.300
     7   6 C        3.627     0.262    16.936     5.928
     8   7 N        2.637    -0.368    29.500     8.067
     9   1 H        0.923     0.020     2.734     2.586
    10   8 O        1.715    -0.162    16.745     5.525
    11   1 H        0.860     0.166     1.298     1.785
    12   1 H        0.860     0.172     1.264     1.761
    13   6 C        2.776     0.220    23.364     7.917
    14   7 N        1.832    -0.262    27.648     7.792
    15   1 H        0.922     0.007     2.943     2.683

Wiberg/Mayer (AO) data.
largest (>0.10) Wiberg bond orders for each atom

     #   Z sym  total        # sym  WBO       # sym  WBO       # sym  WBO
 ---------------------------------------------------------------------------
     1   6 C    3.924 --     2 N    1.882    10 O    1.080     3 H    0.922
     2   7 N    3.033 --     1 C    1.882    12 H    0.943    10 O    0.100
     3   1 H    1.000 --     1 C    0.922
     4   8 O    1.978 --     7 C    0.985     6 H    0.882
     5   1 H    0.974 --     8 N    0.957
     6   1 H    0.902 --     4 O    0.882
     7   6 C    3.954 --     8 N    1.008    14 N    0.989     4 O    0.985
                             9 H    0.944
     8   7 N    3.015 --     7 C    1.008     5 H    0.957    11 H    0.955
     9   1 H    0.999 --     7 C    0.944
    10   8 O    2.454 --    13 C    1.102     1 C    1.080     2 N    0.100
    11   1 H    0.972 --     8 N    0.955
    12   1 H    0.969 --     2 N    0.943
    13   6 C    3.928 --    14 N    1.822    10 O    1.102    15 H    0.919
    14   7 N    3.079 --    13 C    1.822     7 C    0.989
    15   1 H    1.000 --    13 C    0.919
 ---------------------------------------------------------------------------

molecular dipole:
                 x           y           z       tot (Debye)
 q only:       -0.386      -0.007      -0.331
   full:       -0.681       0.450      -0.544       2.494

 projected vibrational frequencies (cm⁻¹)
eigval :       -0.00    -0.00     0.00     0.00     0.00     0.00
eigval :       35.63    91.25   120.86   151.89   228.08   273.64
eigval :      310.83   321.73   366.04   474.24   520.71   581.61
eigval :      617.97   781.15   918.74   929.64   966.22   969.38
eigval :     1029.85  1046.92  1099.86  1123.30  1199.19  1218.81
eigval :     1245.90  1311.24  1321.67  1349.34  1370.90  1533.61
eigval :     1730.08  1761.24  2744.30  2768.93  2847.73  3396.03
eigval :     3409.56  3433.95  3516.46

   temp. (K)  partition function   enthalpy   heat capacity  entropy
                                   cal/mol     cal/K/mol   cal/K/mol   J/K/mol
 298.15  VIB   469.                 3961.259     24.677     24.162
         ROT  0.414E+06              888.752      2.981     28.685
         INT  0.195E+09             4850.012     27.658     52.847
         TR   0.123E+28             1481.254      4.968     40.170
         TOT                        6331.2656    32.6259    93.0178   389.1864

       T/K    H(0)-H(T)+PV         H(T)/Eh          T*S/Eh         G(T)/Eh
   ------------------------------------------------------------------------
    298.15    0.100895E-01    0.121990E+00    0.441958E-01    0.777939E-01
   ------------------------------------------------------------------------

         :::::::::::::::::::::::::::::::::::::::::::::::::::::
         ::                  THERMODYNAMIC                  ::
         :::::::::::::::::::::::::::::::::::::::::::::::::::::
         :: total free energy         -26.757385961418 Eh   ::
         ::.................................................::
         :: total energy              -26.835179841204 Eh   ::
         :: zero point energy           0.111900119666 Eh   ::
         :: G(RRHO) w/o ZPVE           -0.034106239880 Eh   ::
         :: G(RRHO) contrib.            0.077793879786 Eh   ::
         :::::::::::::::::::::::::::::::::::::::::::::::::::::

           -------------------------------------------------
          | TOTAL ENERGY              -26.835179841204 Eh   |
          | TOTAL ENTHALPY            -26.713190207616 Eh   |
          | TOTAL FREE ENERGY         -26.757385961418 Eh   |
          | GRADIENT NORM               0.000031116466 Eh/α |
          | HOMO-LUMO GAP               3.300133533118 eV   |
           -------------------------------------------------

 * finished run on 2025/01/10 at 14:24:41.508
normal termination of xtb
